
  **** **** ******  **  PROGRAM STARTED AT              Fri Jul  5 16:35:57 2002
 ***** ** ***  *** **   PROGRAM STARTED ON                       muralto.cscs.ch
 **    ****   ******    PROGRAM STARTED BY                                 fawzi
 ***** **    ** ** **   PROGRAM PROCESS ID                                 10075
  **** **  *******  **  PROGRAM STARTED IN             /home/fawzi/cp2k/tests/QS

 CP2K| Program compiled at                         Wed Jun 26 17:12:21 CEST 2002
 CP2K| Program compiled on                                       muralto.cscs.ch
 CP2K| Program compiled for                                       Linux-i686-pgi
 CP2K| Program name                                                           QS
 CP2K| Input file name                                               H2O_pao.inp
 CP2K| Project name                                                      project
 CP2K| Default FFT library                                                 FFTSG
 CP2K| Default basis set file                                          BASIS_SET
 CP2K| Default external potential file                                 POTENTIAL
 CP2K| Default library path                                                   ./
 CP2K| Global print level                                                     10
 CP2K| Total number of processors                                              1
 CP2K| This output from processor                                              0

 *******************************************************************************
 *******************************************************************************
 **                                                                           **
 **     #####                         ##              ##                      **
 **    ##   ##            ##          ##              ##                      **
 **   ##     ##                       ##            ######                    **
 **   ##     ##  ##   ##  ##   #####  ##  ##   ####   ##    #####    #####    **
 **   ##     ##  ##   ##  ##  ##      ## ##   ##      ##   ##   ##  ##   ##   **
 **   ##  ## ##  ##   ##  ##  ##      ####     ###    ##   ######   ######    **
 **    ##  ###   ##   ##  ##  ##      ## ##      ##   ##   ##       ##        **
 **     #######   #####   ##   #####  ##  ##  ####    ##    #####   ##        **
 **           ##                                                    ##        **
 **                                                                           **
 **                                                ... make the atoms dance   **
 **                                                                           **
 **                         Version 3.1 (June 2002)                           **
 **                                                                           **
 **            Copyright (C) by CP2K Developers Group (2000 - 2002)           **
 **                                                                           **
 *******************************************************************************
 *******************************************************************************

 DFT| Force calculation                                                       NO
 DFT| Cutoffs: density                                               0.10000E-09
 DFT|          gradient                                              0.10000E-07
 DFT| XC mesh (PW density)                                               default
 FUNCTIONAL| Exchange Functional                                            NONE
                                                                            NONE
 FUNCTIONAL| Correlation Functional                                         PADE
              S. Goedecker, M. Teter and J. Hutter, Phys. Rev. B 54, 1703 (1996)

 QS| Method:                                                                 GPW
 QS| Number of grid levels:                                                    4
 QS| Density cutoff [a.u.]: 1) grid level                                  100.0
 QS|                        2) grid level                                   50.0
 QS|                        3) grid level                                   25.0
 QS|                        4) grid level                                   12.5
 QS| PAO active
 QS| Grid level progression factor:                                          2.0
 QS| Relative density cutoff [a.u.]:                                        25.0
 QS| Interaction thresholds: eps_pgf_orb:                                1.0E-06
 QS|                         eps_core_charge:                            1.0E-12
 QS|                         eps_rho_gspace:                             1.0E-08
 QS|                         eps_rho_rspace:                             1.0E-08
 QS|                         eps_gvg_rspace:                             1.0E-06
 QS|                         eps_ppl:                                    1.0E-12
 QS|                         eps_ppnl:                                   1.0E-12

 CELL| Volume [ANGSTROM**3]:                                            1000.000
 CELL| Vector a [ANGSTROM]:      10.000     0.000     0.000    |a| =      10.000
 CELL| Vector b [ANGSTROM]:       0.000    10.000     0.000    |b| =      10.000
 CELL| Vector c [ANGSTROM]:       0.000     0.000    10.000    |c| =      10.000
 CELL| Angle (b,c) [degree]:                                              90.000
 CELL| Angle (a,c) [degree]:                                              90.000
 CELL| Angle (a,b) [degree]:                                              90.000
 CELL| Grid size for subcell generation                                        2


 BASIS SET INFORMATION (Unnormalised Gaussian-type functions)

  1. Atomic kind: H

   - GTO basis set information

     GTO basis set name: DZV-GTH-PADE

     Set   Shell     n   l            Exponent    Coefficient

       1       1     1   0            8.374435      -0.023894
                                      1.805868      -0.139794
                                      0.485253      -0.253097
                                      0.165824      -0.695531
       1       2     2   0            8.374435       0.000000
                                      1.805868       0.000000
                                      0.485253       0.000000
                                      0.165824       1.000000

  2. Atomic kind: O

   - GTO basis set information

     GTO basis set name: DZVP-GTH-PADE

     Set   Shell     n   l            Exponent    Coefficient

       1       1     2   0            8.304404       0.151016
                                      2.457945      -0.039319
                                      0.759736      -0.697173
                                      0.213639      -0.384113
       1       2     3   0            8.304404       0.000000
                                      2.457945       0.000000
                                      0.759736       0.000000
                                      0.213639       1.000000
       1       3     3   1            8.304404      -0.099568
                                      2.457945      -0.301143
                                      0.759736      -0.475085
                                      0.213639      -0.379878
       1       4     4   1            8.304404       0.000000
                                      2.457945       0.000000
                                      0.759736       0.000000
                                      0.213639       1.000000

       2       1     3   2            0.800000       1.000000


 ATOMIC KIND INFORMATION

  1. Atomic kind: H

     Number of atoms of this atomic kind in the cell:      2

   - Orbital basis set information

     Orbital basis set name: DZV-GTH-PADE

     Number of orbital shell sets:                 1
     Number of orbital shells:                     2
     Number of primitive Cartesian functions:      4
     Number of Cartesian basis functions:          2
     Number of spherical basis functions:          2

     Normalised Cartesian orbitals

     Set   Shell   Orbital            Exponent    Coefficient

       1       1    1s                8.374435      -0.083834
                                      1.805868      -0.155208
                                      0.485253      -0.104875
                                      0.165824      -0.128813

       1       2    2s                8.374435       0.000000
                                      1.805868       0.000000
                                      0.485253       0.000000
                                      0.165824       0.185202
 # projection indexes
     1
 # non projection indexes
     2

  2. Atomic kind: O

     Number of atoms of this atomic kind in the cell:      1

   - Orbital basis set information

     Orbital basis set name: DZVP-GTH-PADE

     Number of orbital shell sets:                 2
     Number of orbital shells:                     5
     Number of primitive Cartesian functions:      5
     Number of Cartesian basis functions:         14
     Number of spherical basis functions:         13

     Normalised Cartesian orbitals

     Set   Shell   Orbital            Exponent    Coefficient

       1       1    2s                8.304404       0.526521
                                      2.457945      -0.055011
                                      0.759736      -0.404341
                                      0.213639      -0.086026

       1       2    3s                8.304404       0.000000
                                      2.457945       0.000000
                                      0.759736       0.000000
                                      0.213639       0.223960

       1       3    3px               8.304404      -2.000758
                                      2.457945      -1.321077
                                      0.759736      -0.480331
                                      0.213639      -0.078647
       1       3    3py               8.304404      -2.000758
                                      2.457945      -1.321077
                                      0.759736      -0.480331
                                      0.213639      -0.078647
       1       3    3pz               8.304404      -2.000758
                                      2.457945      -1.321077
                                      0.759736      -0.480331
                                      0.213639      -0.078647

       1       4    4px               8.304404       0.000000
                                      2.457945       0.000000
                                      0.759736       0.000000
                                      0.213639       0.207033
       1       4    4py               8.304404       0.000000
                                      2.457945       0.000000
                                      0.759736       0.000000
                                      0.213639       0.207033
       1       4    4pz               8.304404       0.000000
                                      2.457945       0.000000
                                      0.759736       0.000000
                                      0.213639       0.207033

       2       1    3dx2              0.800000       1.113825
       2       1    3dxy              0.800000       1.929201
       2       1    3dxz              0.800000       1.929201
       2       1    3dy2              0.800000       1.113825
       2       1    3dyz              0.800000       1.929201
       2       1    3dz2              0.800000       1.113825
 # projection indexes
     1
     2
     3
     4
 # non projection indexes
     5
     6
     7
     8
     9
    10
    11
    12
    13


 TOTAL NUMBERS AND MAXIMUM NUMBERS

  Total number of

  - Atomic kinds:                       2
  - Atoms:                              3
  - Shell sets:                         4
  - Shells:                             9
  - Primitive Cartesian functions:     13
  - Cartesian basis functions:         18
  - Spherical basis functions:         17

  Maximum angular momentum quantum number of the

  - Orbital basis functions:                        2
  - Local part of the GTH pseudopotential:          2
  - Non-local part of the GTH pseudopotential:      0


 ATOMIC COORDINATES IN ANGSTROM

  Atom  Kind  Element       X           Y           Z       Z(eff)    Mass

     1    1   H     1    0.000000   -0.757136    0.520545      1     1.0080
     2    2   O     8    0.000000    0.000000   -0.065587      6    15.9994
     3    1   H     1    0.000000    0.757136    0.520545      1     1.0080


 RADII OF THE ORBITAL BASIS IN ANGSTROM

  Kind   Label       Radius

     1   H          4.525787
     2   O          4.336076


 RADII OF THE CORE CHARGE DISTRIBUTIONS IN ANGSTROM

  Kind   Label       Radius

     1   H          0.815723
     2   O          1.029333


 RADII OF THE LOCAL PART OF THE GTH PSEUDOPOTENTIAL IN ANGSTROM

  Kind   Label       Radius

     1   H          0.839391
     2   O          1.059439


 SCF PARAMETERS

  Density guess: ATOMIC

  nrebuild:              1
  max_scf:              50
  max_diis:              4
  eps_scf:            1.00E-05
  eps_diis:           1.00E-01
  eps_eigval:         1.00E-05
  p_mix:              0.40
  work_syevx:         1.00
  level_shift [a.u.]: 0.00
  smear [a.u.]:       0.00


 SUBCELL GRID FOR THE SAB_ORB NEIGHBOR LISTS

  Atomic kind pair          Grid size                Subcell size in ANGSTROM
         1       1        1    1    1         10.000000   10.000000   10.000000
         1       2        1    1    1         10.000000   10.000000   10.000000
         2       2        1    1    1         10.000000   10.000000   10.000000


 SUBCELL GRID FOR THE SAC_PPL NEIGHBOR LISTS

  Atomic kind pair          Grid size                Subcell size in ANGSTROM
         1       1        2    2    2          5.000000    5.000000    5.000000
         1       2        2    2    2          5.000000    5.000000    5.000000
         2       1        2    2    2          5.000000    5.000000    5.000000
         2       2        2    2    2          5.000000    5.000000    5.000000


 SUBCELL GRID FOR THE SCA_PPNL NEIGHBOR LISTS

  Atomic kind pair          Grid size                Subcell size in ANGSTROM
         2       1        2    2    2          5.000000    5.000000    5.000000
         2       2        2    2    2          5.000000    5.000000    5.000000


 DISTRIBUTION OF THE OVERLAP MATRIX ELEMENTS

  Image atoms included:

    PE   Matrix blocks   Matrix elements

     0               7               237

   Sum               7               237


  Image atoms not included:

    PE   Matrix blocks   Matrix elements

     0               6               233

   Sum               6               233

    of               6 blocks in the full matrix (100.0 % occupation)


 SCF WAVEFUNCTION OPTIMIZATION


 SUBCELL GRID FOR THE CALCULATION OF THE CORE CHARGE OVERLAP

  Atomic kind pair          Grid size                Subcell size in ANGSTROM
         1       1        6    6    6          1.666667    1.666667    1.666667
         1       2        5    5    5          2.000000    2.000000    2.000000
         2       2        5    5    5          2.000000    2.000000    2.000000

  Overlap energy of the core charge distribution:                  0.0000000870
  Self energy of the core charge distribution:                   -43.8328905459

  Number of electrons:                             8
  Number of occupied orbitals:                     4
  Number of orbital functions:                    17
  Number of independent orbital functions:        17

 PW_GRID: Information for grid number                                          1
 PW_GRID:                         spherical cutoff                    100.0 a.u.
 PW_GRID: Grid points within cutoff                                       161227
 PW_GRID:   Bounds   1            -45      44                Points:          90
 PW_GRID:   Bounds   2            -45      44                Points:          90
 PW_GRID:   Bounds   3            -45      44                Points:          90
 PW_GRID: Volume element (a.u.^3)  0.9257E-02     Volume (a.u.^3)      6748.3327
 PW_GRID: Grid span                                                    HALFSPACE



 PW_GRID: Information for grid number                                          2
 PW_GRID:                         spherical cutoff                     50.0 a.u.
 PW_GRID: Grid points within cutoff                                        56901
 PW_GRID:   Bounds   1            -32      31                Points:          64
 PW_GRID:   Bounds   2            -32      31                Points:          64
 PW_GRID:   Bounds   3            -32      31                Points:          64
 PW_GRID: Volume element (a.u.^3)  0.2574E-01     Volume (a.u.^3)      6748.3327
 PW_GRID: Grid span                                                    HALFSPACE



 PW_GRID: Information for grid number                                          3
 PW_GRID:                         spherical cutoff                     25.0 a.u.
 PW_GRID: Grid points within cutoff                                        20170
 PW_GRID:   Bounds   1            -22      22                Points:          45
 PW_GRID:   Bounds   2            -22      22                Points:          45
 PW_GRID:   Bounds   3            -22      22                Points:          45
 PW_GRID: Volume element (a.u.^3)  0.7406E-01     Volume (a.u.^3)      6748.3327
 PW_GRID: Grid span                                                    HALFSPACE



 PW_GRID: Information for grid number                                          4
 PW_GRID:                         spherical cutoff                     12.5 a.u.
 PW_GRID: Grid points within cutoff                                         7122
 PW_GRID:   Bounds   1            -16      15                Points:          32
 PW_GRID:   Bounds   2            -16      15                Points:          32
 PW_GRID:   Bounds   3            -16      15                Points:          32
 PW_GRID: Volume element (a.u.^3)  0.2059         Volume (a.u.^3)      6748.3327
 PW_GRID: Grid span                                                    HALFSPACE


RUNNING THE L-BFGS-B CODE

           * * *

Machine precision = 2.220D-16
 N =            38     M =             4
 This problem is unconstrained.

At X0         0 variables are exactly at the bounds

  Step  Update method            Time           Convergence        Total energy
  -----------------------------------------------------------------------------

  Core Hamiltonian energy:                                        12.2647872488
  Hartree energy:                                                 18.4849755243
  Exchange-correlation energy:                                    -3.9327458825

At iterate    0    f= -1.54844D+00    |proj g|=  4.72684D-01

At iterate    1    f= -1.74738D+00    |proj g|=  4.94438D-01

At iterate    2    f= -1.90774D+00    |proj g|=  4.95464D-01

At iterate    3    f= -2.02908D+00    |proj g|=  2.12396D-01

At iterate    4    f= -2.07178D+00    |proj g|=  1.60314D-01

At iterate    5    f= -2.08581D+00    |proj g|=  1.05049D-01

At iterate    6    f= -2.08993D+00    |proj g|=  7.43846D-02

At iterate    7    f= -2.09144D+00    |proj g|=  4.19012D-02

At iterate    8    f= -2.09213D+00    |proj g|=  2.72911D-02

At iterate    9    f= -2.09340D+00    |proj g|=  3.91104D-02

At iterate   10    f= -2.09537D+00    |proj g|=  5.25441D-02

At iterate   11    f= -2.09777D+00    |proj g|=  7.49636D-02

At iterate   12    f= -2.09904D+00    |proj g|=  8.16236D-02

At iterate   13    f= -2.10057D+00    |proj g|=  3.00190D-02

At iterate   14    f= -2.10157D+00    |proj g|=  2.61854D-02

At iterate   15    f= -2.10217D+00    |proj g|=  3.09308D-02

At iterate   16    f= -2.10283D+00    |proj g|=  2.77853D-02

At iterate   17    f= -2.10391D+00    |proj g|=  3.41438D-02

At iterate   18    f= -2.10517D+00    |proj g|=  3.97269D-02

At iterate   19    f= -2.10557D+00    |proj g|=  3.06808D-02

At iterate   20    f= -2.10582D+00    |proj g|=  2.00658D-02

At iterate   21    f= -2.10620D+00    |proj g|=  1.62723D-02

At iterate   22    f= -2.10657D+00    |proj g|=  1.40486D-02

At iterate   23    f= -2.10662D+00    |proj g|=  1.12614D-02

At iterate   24    f= -2.10668D+00    |proj g|=  7.89184D-03

At iterate   25    f= -2.10672D+00    |proj g|=  5.57499D-03

At iterate   26    f= -2.10674D+00    |proj g|=  6.06303D-03

At iterate   27    f= -2.10675D+00    |proj g|=  2.97394D-03

At iterate   28    f= -2.10676D+00    |proj g|=  2.02056D-03

At iterate   29    f= -2.10676D+00    |proj g|=  2.87218D-03

At iterate   30    f= -2.10677D+00    |proj g|=  4.85151D-03

At iterate   31    f= -2.10742D+00    |proj g|=  1.05910D-01

At iterate   32    f= -2.10744D+00    |proj g|=  1.11962D-01

At iterate   33    f= -2.10755D+00    |proj g|=  1.29291D-01

At iterate   34    f= -2.10786D+00    |proj g|=  1.66175D-01

At iterate   35    f= -2.10856D+00    |proj g|=  1.91943D-01

At iterate   36    f= -2.11085D+00    |proj g|=  2.42300D-01

At iterate   37    f= -2.11641D+00    |proj g|=  2.82283D-01

At iterate   38    f= -2.13672D+00    |proj g|=  3.12608D-01

At iterate   39    f= -2.22280D+00    |proj g|=  2.97768D-01

At iterate   40    f= -2.26245D+00    |proj g|=  4.27809D-01

At iterate   41    f= -2.34485D+00    |proj g|=  3.70844D-01

At iterate   42    f= -2.45530D+00    |proj g|=  1.47478D-01

At iterate   43    f= -2.48224D+00    |proj g|=  1.94279D-01

At iterate   44    f= -2.49752D+00    |proj g|=  8.16300D-02

At iterate   45    f= -2.51643D+00    |proj g|=  6.81163D-02

At iterate   46    f= -2.52640D+00    |proj g|=  9.16699D-02

At iterate   47    f= -2.53730D+00    |proj g|=  9.25334D-02

At iterate   48    f= -2.54302D+00    |proj g|=  7.40157D-02

At iterate   49    f= -2.54619D+00    |proj g|=  3.82342D-02

At iterate   50    f= -2.54877D+00    |proj g|=  4.46362D-02

At iterate   51    f= -2.55202D+00    |proj g|=  4.98150D-02

At iterate   52    f= -2.56005D+00    |proj g|=  1.01174D-01

At iterate   53    f= -2.56687D+00    |proj g|=  9.64980D-02

At iterate   54    f= -2.57549D+00    |proj g|=  1.21349D-01

At iterate   55    f= -2.58329D+00    |proj g|=  6.79348D-02

At iterate   56    f= -2.58984D+00    |proj g|=  3.40481D-02

At iterate   57    f= -2.59095D+00    |proj g|=  1.29140D-02

At iterate   58    f= -2.59118D+00    |proj g|=  8.90487D-03

At iterate   59    f= -2.59123D+00    |proj g|=  8.63234D-03

At iterate   60    f= -2.59126D+00    |proj g|=  2.09992D-03

At iterate   61    f= -2.59127D+00    |proj g|=  2.16810D-03

At iterate   62    f= -2.59129D+00    |proj g|=  2.36275D-03

At iterate   63    f= -2.59131D+00    |proj g|=  3.51244D-03

At iterate   64    f= -2.59134D+00    |proj g|=  4.06093D-03

At iterate   65    f= -2.59135D+00    |proj g|=  3.43379D-03

At iterate   66    f= -2.59135D+00    |proj g|=  9.59926D-04

At iterate   67    f= -2.59136D+00    |proj g|=  8.65425D-04

At iterate   68    f= -2.59136D+00    |proj g|=  5.74850D-04

At iterate   69    f= -2.59136D+00    |proj g|=  6.70512D-04

At iterate   70    f= -2.59136D+00    |proj g|=  3.80683D-04

At iterate   71    f= -2.59136D+00    |proj g|=  6.66906D-05

At iterate   72    f= -2.59136D+00    |proj g|=  6.52981D-05

At iterate   73    f= -2.59136D+00    |proj g|=  9.19282D-05

At iterate   74    f= -2.59136D+00    |proj g|=  2.77617D-04

At iterate   75    f= -2.59136D+00    |proj g|=  1.04426D-04

At iterate   76    f= -2.59136D+00    |proj g|=  2.63570D-05

At iterate   77    f= -2.59136D+00    |proj g|=  2.05396D-05

At iterate   78    f= -2.59136D+00    |proj g|=  3.17110D-05

At iterate   79    f= -2.59136D+00    |proj g|=  1.05132D-05

At iterate   80    f= -2.59136D+00    |proj g|=  7.39079D-06

At iterate   81    f= -2.59136D+00    |proj g|=  3.49605D-06

At iterate   82    f= -2.59136D+00    |proj g|=  4.17103D-06

At iterate   83    f= -2.59136D+00    |proj g|=  2.13564D-06

At iterate   84    f= -2.59136D+00    |proj g|=  7.77288D-07
     1  Mixing  0.40             4.40          0.9732834537      -17.0158735683

  Core Hamiltonian energy:                                        13.1899409589
  Hartree energy:                                                 17.6927031220
  Exchange-correlation energy:                                    -4.1248174448

At iterate   85    f= -2.01168D+00    |proj g|=  1.42733D-01
  ys= 0.000E+00  -gs= 0.000E+00 BFGS update SKIPPED

At iterate   86    f= -2.02213D+00    |proj g|=  7.83752D-02

At iterate   87    f= -2.02573D+00    |proj g|=  2.39305D-02

At iterate   88    f= -2.02600D+00    |proj g|=  2.03353D-02

At iterate   89    f= -2.02618D+00    |proj g|=  9.53452D-03

At iterate   90    f= -2.02639D+00    |proj g|=  5.19982D-03

At iterate   91    f= -2.02653D+00    |proj g|=  6.02462D-03

At iterate   92    f= -2.02662D+00    |proj g|=  2.23719D-02

At iterate   93    f= -2.02675D+00    |proj g|=  5.13294D-03

At iterate   94    f= -2.02677D+00    |proj g|=  3.85456D-03

At iterate   95    f= -2.02681D+00    |proj g|=  2.71216D-03

At iterate   96    f= -2.02682D+00    |proj g|=  8.44203D-03

At iterate   97    f= -2.02684D+00    |proj g|=  1.85364D-03

At iterate   98    f= -2.02685D+00    |proj g|=  8.52180D-04

At iterate   99    f= -2.02685D+00    |proj g|=  4.55918D-04

At iterate  100    f= -2.02685D+00    |proj g|=  3.65221D-04

At iterate  101    f= -2.02685D+00    |proj g|=  7.10195D-04

At iterate  102    f= -2.02685D+00    |proj g|=  2.45960D-04

At iterate  103    f= -2.02685D+00    |proj g|=  1.23750D-04

At iterate  104    f= -2.02685D+00    |proj g|=  1.22293D-04

At iterate  105    f= -2.02685D+00    |proj g|=  1.74194D-04

At iterate  106    f= -2.02685D+00    |proj g|=  1.53312D-05

At iterate  107    f= -2.02685D+00    |proj g|=  9.94004D-06

At iterate  108    f= -2.02685D+00    |proj g|=  8.41874D-06

At iterate  109    f= -2.02685D+00    |proj g|=  1.19430D-05

At iterate  110    f= -2.02685D+00    |proj g|=  4.62011D-06

At iterate  111    f= -2.02685D+00    |proj g|=  4.15132D-06

At iterate  112    f= -2.02685D+00    |proj g|=  2.70755D-06

At iterate  113    f= -2.02685D+00    |proj g|=  1.97023D-06

At iterate  114    f= -2.02685D+00    |proj g|=  2.81701D-06

At iterate  115    f= -2.02685D+00    |proj g|=  1.12632D-06

At iterate  116    f= -2.02685D+00    |proj g|=  5.99835D-07
     2  Mixing  0.40             3.34          0.5886479427      -17.0750638228

  Core Hamiltonian energy:                                        13.0251663252
  Hartree energy:                                                 17.8224848716
  Exchange-correlation energy:                                    -4.1238763477

At iterate  117    f= -2.02168D+00    |proj g|=  1.17437D-02
  ys= 0.000E+00  -gs= 0.000E+00 BFGS update SKIPPED

At iterate  118    f= -2.02176D+00    |proj g|=  4.31989D-03

At iterate  119    f= -2.02177D+00    |proj g|=  1.55536D-03

At iterate  120    f= -2.02177D+00    |proj g|=  3.71405D-04

At iterate  121    f= -2.02177D+00    |proj g|=  2.88324D-04

At iterate  122    f= -2.02177D+00    |proj g|=  2.37559D-04

At iterate  123    f= -2.02177D+00    |proj g|=  1.32945D-04

At iterate  124    f= -2.02177D+00    |proj g|=  9.04900D-05

At iterate  125    f= -2.02177D+00    |proj g|=  9.75132D-05

At iterate  126    f= -2.02177D+00    |proj g|=  1.71705D-04

At iterate  127    f= -2.02177D+00    |proj g|=  7.28575D-05

At iterate  128    f= -2.02177D+00    |proj g|=  3.06212D-05

At iterate  129    f= -2.02177D+00    |proj g|=  2.29468D-05

At iterate  130    f= -2.02177D+00    |proj g|=  5.54728D-05

At iterate  131    f= -2.02177D+00    |proj g|=  1.37017D-05

At iterate  132    f= -2.02177D+00    |proj g|=  1.10185D-05

At iterate  133    f= -2.02177D+00    |proj g|=  1.18159D-05

At iterate  134    f= -2.02177D+00    |proj g|=  1.62618D-05

At iterate  135    f= -2.02177D+00    |proj g|=  5.34183D-06

At iterate  136    f= -2.02177D+00    |proj g|=  4.30984D-06

At iterate  137    f= -2.02177D+00    |proj g|=  6.91742D-06

At iterate  138    f= -2.02177D+00    |proj g|=  6.95282D-06

At iterate  139    f= -2.02177D+00    |proj g|=  6.21395D-06

At iterate  140    f= -2.02177D+00    |proj g|=  5.32811D-06

At iterate  141    f= -2.02177D+00    |proj g|=  1.31960D-06

At iterate  142    f= -2.02177D+00    |proj g|=  1.24217D-06

At iterate  143    f= -2.02177D+00    |proj g|=  1.03193D-06

At iterate  144    f= -2.02177D+00    |proj g|=  1.85561D-06

At iterate  145    f= -2.02177D+00    |proj g|=  7.24362D-07
     3  Mixing  0.40             3.29          0.3563595620      -17.1091156099

  Core Hamiltonian energy:                                        12.9827185312
  Hartree energy:                                                 17.8554812482
  Exchange-correlation energy:                                    -4.1343568627

At iterate  146    f= -1.99256D+00    |proj g|=  2.97974D-03
  ys= 0.000E+00  -gs= 0.000E+00 BFGS update SKIPPED

At iterate  147    f= -1.99256D+00    |proj g|=  5.68247D-04

At iterate  148    f= -1.99256D+00    |proj g|=  3.34876D-04

At iterate  149    f= -1.99256D+00    |proj g|=  2.40121D-04

At iterate  150    f= -1.99256D+00    |proj g|=  4.88035D-04

At iterate  151    f= -1.99256D+00    |proj g|=  1.76777D-04

At iterate  152    f= -1.99256D+00    |proj g|=  1.61155D-04

At iterate  153    f= -1.99256D+00    |proj g|=  2.60415D-04

At iterate  154    f= -1.99256D+00    |proj g|=  2.46113D-04

At iterate  155    f= -1.99256D+00    |proj g|=  1.16501D-04

At iterate  156    f= -1.99256D+00    |proj g|=  6.16254D-05

At iterate  157    f= -1.99256D+00    |proj g|=  5.69756D-05

At iterate  158    f= -1.99256D+00    |proj g|=  1.81362D-04

At iterate  159    f= -1.99256D+00    |proj g|=  4.62493D-05

At iterate  160    f= -1.99256D+00    |proj g|=  3.08232D-05

At iterate  161    f= -1.99256D+00    |proj g|=  2.24814D-05

At iterate  162    f= -1.99256D+00    |proj g|=  2.34702D-05

At iterate  163    f= -1.99256D+00    |proj g|=  1.15227D-05

At iterate  164    f= -1.99256D+00    |proj g|=  1.03956D-05

At iterate  165    f= -1.99256D+00    |proj g|=  1.56984D-05

At iterate  166    f= -1.99256D+00    |proj g|=  9.75953D-06

At iterate  167    f= -1.99256D+00    |proj g|=  8.97036D-06

At iterate  168    f= -1.99256D+00    |proj g|=  8.70021D-06

At iterate  169    f= -1.99256D+00    |proj g|=  1.56175D-05

At iterate  170    f= -1.99256D+00    |proj g|=  3.91219D-06

At iterate  171    f= -1.99256D+00    |proj g|=  1.57299D-06

At iterate  172    f= -1.99256D+00    |proj g|=  1.07561D-06

At iterate  173    f= -1.99256D+00    |proj g|=  4.77207D-07
     4  Mixing  0.40             3.33          0.2139137588      -17.1290475423

  Core Hamiltonian energy:                                        12.9528826651
  Hartree energy:                                                 17.8794243574
  Exchange-correlation energy:                                    -4.1402341357

At iterate  174    f= -1.97725D+00    |proj g|=  1.39028D-03
  ys= 0.000E+00  -gs= 0.000E+00 BFGS update SKIPPED

At iterate  175    f= -1.97725D+00    |proj g|=  4.19886D-04

At iterate  176    f= -1.97725D+00    |proj g|=  1.06881D-04

At iterate  177    f= -1.97725D+00    |proj g|=  1.29621D-04

At iterate  178    f= -1.97725D+00    |proj g|=  1.18524D-04

At iterate  179    f= -1.97725D+00    |proj g|=  8.21767D-05

At iterate  180    f= -1.97725D+00    |proj g|=  4.48001D-05

At iterate  181    f= -1.97725D+00    |proj g|=  2.61998D-05

At iterate  182    f= -1.97725D+00    |proj g|=  5.48677D-05

At iterate  183    f= -1.97725D+00    |proj g|=  3.40741D-05

At iterate  184    f= -1.97725D+00    |proj g|=  3.51384D-05

At iterate  185    f= -1.97725D+00    |proj g|=  3.47843D-05

At iterate  186    f= -1.97725D+00    |proj g|=  4.29367D-05

At iterate  187    f= -1.97725D+00    |proj g|=  8.05175D-06

At iterate  188    f= -1.97725D+00    |proj g|=  5.60186D-06

At iterate  189    f= -1.97725D+00    |proj g|=  3.89166D-06

At iterate  190    f= -1.97725D+00    |proj g|=  1.05132D-05

At iterate  191    f= -1.97725D+00    |proj g|=  2.46057D-06

At iterate  192    f= -1.97725D+00    |proj g|=  1.98464D-06

At iterate  193    f= -1.97725D+00    |proj g|=  1.64517D-06

At iterate  194    f= -1.97725D+00    |proj g|=  4.42471D-06

At iterate  195    f= -1.97725D+00    |proj g|=  5.84444D-07
     5  Mixing  0.40             3.19          0.1284022095      -17.1408175721

  Core Hamiltonian energy:                                        12.9362396869
  Hartree energy:                                                 17.8929095457
  Exchange-correlation energy:                                    -4.1440841734

At iterate  196    f= -1.96758D+00    |proj g|=  7.28748D-04
  ys= 0.000E+00  -gs= 0.000E+00 BFGS update SKIPPED

At iterate  197    f= -1.96758D+00    |proj g|=  1.43268D-04

At iterate  198    f= -1.96758D+00    |proj g|=  9.34504D-05

At iterate  199    f= -1.96758D+00    |proj g|=  7.46287D-05

At iterate  200    f= -1.96758D+00    |proj g|=  1.32189D-04

At iterate  201    f= -1.96758D+00    |proj g|=  1.11001D-04

At iterate  202    f= -1.96758D+00    |proj g|=  8.91738D-05

At iterate  203    f= -1.96758D+00    |proj g|=  1.40171D-04

At iterate  204    f= -1.96758D+00    |proj g|=  2.33346D-05

At iterate  205    f= -1.96758D+00    |proj g|=  1.74672D-05

At iterate  206    f= -1.96758D+00    |proj g|=  1.32274D-05

At iterate  207    f= -1.96758D+00    |proj g|=  1.06002D-05

At iterate  208    f= -1.96758D+00    |proj g|=  6.10170D-06

At iterate  209    f= -1.96758D+00    |proj g|=  4.84862D-06

At iterate  210    f= -1.96758D+00    |proj g|=  1.54272D-05

At iterate  211    f= -1.96758D+00    |proj g|=  5.38423D-06

At iterate  212    f= -1.96758D+00    |proj g|=  4.88343D-06

At iterate  213    f= -1.96758D+00    |proj g|=  4.78964D-06

At iterate  214    f= -1.96758D+00    |proj g|=  6.69717D-06

At iterate  215    f= -1.96758D+00    |proj g|=  5.94768D-06

At iterate  216    f= -1.96758D+00    |proj g|=  1.18115D-06

At iterate  217    f= -1.96758D+00    |proj g|=  8.36814D-07
     6  Mixing  0.40             3.27          0.0770122494      -17.1478253998

  Core Hamiltonian energy:                                        12.9263987794
  Hartree energy:                                                 17.9009238740
  Exchange-correlation energy:                                    -4.1464449784

At iterate  218    f= -1.96175D+00    |proj g|=  4.29045D-04
  ys= 0.000E+00  -gs= 0.000E+00 BFGS update SKIPPED

At iterate  219    f= -1.96175D+00    |proj g|=  1.23010D-04

At iterate  220    f= -1.96175D+00    |proj g|=  4.45644D-05

At iterate  221    f= -1.96175D+00    |proj g|=  4.14528D-05

At iterate  222    f= -1.96175D+00    |proj g|=  3.66381D-05

At iterate  223    f= -1.96175D+00    |proj g|=  4.98369D-05

At iterate  224    f= -1.96175D+00    |proj g|=  1.01674D-04

At iterate  225    f= -1.96175D+00    |proj g|=  4.11211D-05

At iterate  226    f= -1.96175D+00    |proj g|=  1.27752D-05

At iterate  227    f= -1.96175D+00    |proj g|=  7.37654D-06

At iterate  228    f= -1.96175D+00    |proj g|=  1.10492D-05

At iterate  229    f= -1.96175D+00    |proj g|=  1.99088D-06

At iterate  230    f= -1.96175D+00    |proj g|=  1.92460D-06

At iterate  231    f= -1.96175D+00    |proj g|=  1.74340D-06

At iterate  232    f= -1.96175D+00    |proj g|=  2.38882D-06

At iterate  233    f= -1.96175D+00    |proj g|=  6.51674D-06

At iterate  234    f= -1.96175D+00    |proj g|=  9.93912D-07
     7  Mixing  0.40             3.22          0.0461845923      -17.1520127840

  Core Hamiltonian energy:                                        12.9205847476
  Hartree energy:                                                 17.9056657919
  Exchange-correlation energy:                                    -4.1478798268

At iterate  235    f= -1.95824D+00    |proj g|=  2.51205D-04
  ys= 0.000E+00  -gs= 0.000E+00 BFGS update SKIPPED

At iterate  236    f= -1.95824D+00    |proj g|=  4.06696D-05

At iterate  237    f= -1.95824D+00    |proj g|=  2.72585D-05

At iterate  238    f= -1.95824D+00    |proj g|=  2.15748D-05

At iterate  239    f= -1.95824D+00    |proj g|=  2.61831D-05

At iterate  240    f= -1.95824D+00    |proj g|=  2.97313D-05

At iterate  241    f= -1.95824D+00    |proj g|=  2.39875D-05

At iterate  242    f= -1.95824D+00    |proj g|=  2.27191D-05

At iterate  243    f= -1.95824D+00    |proj g|=  8.76731D-06

At iterate  244    f= -1.95824D+00    |proj g|=  3.60507D-06

At iterate  245    f= -1.95824D+00    |proj g|=  2.86365D-06

At iterate  246    f= -1.95824D+00    |proj g|=  1.54652D-06

At iterate  247    f= -1.95824D+00    |proj g|=  1.35074D-06

At iterate  248    f= -1.95824D+00    |proj g|=  1.77555D-06

At iterate  249    f= -1.95824D+00    |proj g|=  5.07325D-07
     8  Mixing  0.40             3.13          0.0276886579      -17.1545197462

  Core Hamiltonian energy:                                        12.9171209370
  Hartree energy:                                                 17.9084895331
  Exchange-correlation energy:                                    -4.1487421076

At iterate  250    f= -1.95613D+00    |proj g|=  1.46826D-04
  ys= 0.000E+00  -gs= 0.000E+00 BFGS update SKIPPED

At iterate  251    f= -1.95613D+00    |proj g|=  2.22931D-05

At iterate  252    f= -1.95613D+00    |proj g|=  9.61039D-06

At iterate  253    f= -1.95613D+00    |proj g|=  1.07004D-05

At iterate  254    f= -1.95613D+00    |proj g|=  1.19011D-05

At iterate  255    f= -1.95613D+00    |proj g|=  1.07353D-05

At iterate  256    f= -1.95613D+00    |proj g|=  6.24324D-06

At iterate  257    f= -1.95613D+00    |proj g|=  3.55121D-06

At iterate  258    f= -1.95613D+00    |proj g|=  5.32042D-06

At iterate  259    f= -1.95613D+00    |proj g|=  7.06214D-06

At iterate  260    f= -1.95613D+00    |proj g|=  1.67560D-06

At iterate  261    f= -1.95613D+00    |proj g|=  1.48006D-06

At iterate  262    f= -1.95613D+00    |proj g|=  9.81587D-07
     9  Mixing  0.40             3.19          0.0165986770      -17.1560220964

  Core Hamiltonian energy:                                        12.9150466139
  Hartree energy:                                                 17.9101778839
  Exchange-correlation energy:                                    -4.1492569302

At iterate  263    f= -1.95488D+00    |proj g|=  8.68734D-05
  ys= 0.000E+00  -gs= 0.000E+00 BFGS update SKIPPED

At iterate  264    f= -1.95488D+00    |proj g|=  4.29236D-05

At iterate  265    f= -1.95488D+00    |proj g|=  1.07588D-05

At iterate  266    f= -1.95488D+00    |proj g|=  5.39047D-06

At iterate  267    f= -1.95488D+00    |proj g|=  3.94189D-06

At iterate  268    f= -1.95488D+00    |proj g|=  5.04722D-06

At iterate  269    f= -1.95488D+00    |proj g|=  1.90284D-06

At iterate  270    f= -1.95488D+00    |proj g|=  8.96399D-07
    10  Mixing  0.40             3.22          0.0099535552      -17.1569228913

  Core Hamiltonian energy:                                        12.9138036801
  Hartree energy:                                                 17.9111872437
  Exchange-correlation energy:                                    -4.1495636229

At iterate  271    f= -1.95413D+00    |proj g|=  5.03549D-05
  ys= 0.000E+00  -gs= 0.000E+00 BFGS update SKIPPED

At iterate  272    f= -1.95413D+00    |proj g|=  6.76485D-06

At iterate  273    f= -1.95413D+00    |proj g|=  2.98755D-06

At iterate  274    f= -1.95413D+00    |proj g|=  2.51763D-06

At iterate  275    f= -1.95413D+00    |proj g|=  3.48160D-06

At iterate  276    f= -1.95413D+00    |proj g|=  5.56030D-06

At iterate  277    f= -1.95413D+00    |proj g|=  2.89818D-06

At iterate  278    f= -1.95413D+00    |proj g|=  1.36080D-06

At iterate  279    f= -1.95413D+00    |proj g|=  7.18616D-07
    11  Mixing  0.40             3.08          0.0059651888      -17.1574631579

  Core Hamiltonian energy:                                        12.9130563244
  Hartree energy:                                                 17.9117925678
  Exchange-correlation energy:                                    -4.1497456735

At iterate  280    f= -1.95368D+00    |proj g|=  2.96036D-05
  ys= 0.000E+00  -gs= 0.000E+00 BFGS update SKIPPED

At iterate  281    f= -1.95368D+00    |proj g|=  5.66986D-06

At iterate  282    f= -1.95368D+00    |proj g|=  3.07480D-06

At iterate  283    f= -1.95368D+00    |proj g|=  2.20841D-06

At iterate  284    f= -1.95368D+00    |proj g|=  4.60717D-06

At iterate  285    f= -1.95368D+00    |proj g|=  5.36312D-07
    12  Mixing  0.40             3.07          0.0035778090      -17.1577872402

  Core Hamiltonian energy:                                        12.9126070232
  Hartree energy:                                                 17.9121554391
  Exchange-correlation energy:                                    -4.1498536660

At iterate  286    f= -1.95342D+00    |proj g|=  1.74621D-05
  ys= 0.000E+00  -gs= 0.000E+00 BFGS update SKIPPED

At iterate  287    f= -1.95342D+00    |proj g|=  1.41405D-06

At iterate  288    f= -1.95342D+00    |proj g|=  7.49288D-07
    13  Mixing  0.40             3.07          0.0021468915      -17.1579816627

  Core Hamiltonian energy:                                        12.9123376158
  Hartree energy:                                                 17.9123724509
  Exchange-correlation energy:                                    -4.1499179155

At iterate  289    f= -1.95326D+00    |proj g|=  1.03896D-05
  ys= 0.000E+00  -gs= 0.000E+00 BFGS update SKIPPED

At iterate  290    f= -1.95326D+00    |proj g|=  1.10611D-06

At iterate  291    f= -1.95326D+00    |proj g|=  6.82960D-07
    14  Mixing  0.40             3.07          0.0012877008      -17.1580983079

  Core Hamiltonian energy:                                        12.9121753327
  Hartree energy:                                                 17.9125028171
  Exchange-correlation energy:                                    -4.1499559819

At iterate  292    f= -1.95316D+00    |proj g|=  6.32176D-06
  ys= 0.000E+00  -gs= 0.000E+00 BFGS update SKIPPED

At iterate  293    f= -1.95316D+00    |proj g|=  3.10178D-06

At iterate  294    f= -1.95316D+00    |proj g|=  1.26495D-06

At iterate  295    f= -1.95316D+00    |proj g|=  2.11260D-07
    15  Mixing  0.40             3.16          0.0007709899      -17.1581682910

  Core Hamiltonian energy:                                        12.9120771027
  Hartree energy:                                                 17.9125814643
  Exchange-correlation energy:                                    -4.1499783856

At iterate  296    f= -1.95311D+00    |proj g|=  3.35293D-06
  ys= 0.000E+00  -gs= 0.000E+00 BFGS update SKIPPED

At iterate  297    f= -1.95311D+00    |proj g|=  4.37447D-07
    16  Mixing  0.40             3.05          0.0004621247      -17.1582102775

  Core Hamiltonian energy:                                        12.9120184179
  Hartree energy:                                                 17.9126283247
  Exchange-correlation energy:                                    -4.1499917523

At iterate  298    f= -1.95308D+00    |proj g|=  1.85677D-06
  ys= 0.000E+00  -gs= 0.000E+00 BFGS update SKIPPED

At iterate  299    f= -1.95308D+00    |proj g|=  4.40428D-07
    17  Mixing  0.40             3.07          0.0002772401      -17.1582354686

  Core Hamiltonian energy:                                        12.9119831629
  Hartree energy:                                                 17.9126563872
  Exchange-correlation energy:                                    -4.1499996743

At iterate  300    f= -1.95306D+00    |proj g|=  1.10168D-06
  ys= 0.000E+00  -gs= 0.000E+00 BFGS update SKIPPED

At iterate  301    f= -1.95306D+00    |proj g|=  2.92788D-07
    18  Mixing  0.40             3.06          0.0001664028      -17.1582505831

  Core Hamiltonian energy:                                        12.9119620976
  Hartree energy:                                                 17.9126730947
  Exchange-correlation energy:                                    -4.1500043854

At iterate  302    f= -1.95304D+00    |proj g|=  4.71999D-07
    19  Mixing  0.40             3.11          0.0000997098      -17.1582596520

  Core Hamiltonian energy:                                        12.9119496275
  Hartree energy:                                                 17.9126829772
  Exchange-correlation energy:                                    -4.1500072394
  ys= 0.000E+00  -gs= 0.000E+00 BFGS update SKIPPED

At iterate  303    f= -1.95304D+00    |proj g|=  8.85064D-07
    20  Mixing  0.40             3.09          0.0000597770      -17.1582650936

  Core Hamiltonian energy:                                        12.9119421975
  Hartree energy:                                                 17.9126888630
  Exchange-correlation energy:                                    -4.1500089602
  ys= 0.000E+00  -gs= 0.000E+00 BFGS update SKIPPED

At iterate  304    f= -1.95303D+00    |proj g|=  1.13266D-06
  ys= 0.000E+00  -gs= 0.000E+00 BFGS update SKIPPED

At iterate  305    f= -1.95303D+00    |proj g|=  1.82027D-07
    21  Mixing  0.40             3.14          0.0000365263      -17.1582683587

  Core Hamiltonian energy:                                        12.9119373195
  Hartree energy:                                                 17.9126926855
  Exchange-correlation energy:                                    -4.1500098632

At iterate  306    f= -1.95303D+00    |proj g|=  1.74750D-07
    22  Mixing  0.40             3.08          0.0000218317      -17.1582703172

  Core Hamiltonian energy:                                        12.9119345292
  Hartree energy:                                                 17.9126948646
  Exchange-correlation energy:                                    -4.1500104274
  ys= 0.000E+00  -gs= 0.000E+00 BFGS update SKIPPED

At iterate  307    f= -1.95303D+00    |proj g|=  1.84466D-07
    23  Mixing  0.40             3.08          0.0000130798      -17.1582714925

  Core Hamiltonian energy:                                        12.9119328804
  Hartree energy:                                                 17.9126961508
  Exchange-correlation energy:                                    -4.1500107700
  ys= 0.000E+00  -gs= 0.000E+00 BFGS update SKIPPED

At iterate  308    f= -1.95303D+00    |proj g|=  1.91053D-07
    24  Mixing  0.40             2.99          0.0000078416      -17.1582721978

  *** SCF run converged ***


  Total electronic density (r-space):         -7.9999988287        0.0000011713
  Total core charge density (r-space):         8.0000000658        0.0000000658
  Total charge density (r-space):                                  0.0000012372
  Total charge density (g-space):                                  0.0000012372

  Overlap energy of the core charge distribution:                  0.0000000870
  Self energy of the core charge distribution:                   -43.8328905459
  Core Hamiltonian energy:                                        12.9119328804
  Hartree energy:                                                 17.9126961508
  Exchange-correlation energy:                                    -4.1500107700
  Total energy:                                                  -17.1582721978


 MO EIGENVALUES AND MO OCCUPATION NUMBERS

                                1            2            3            4
                             0.000000     0.000000     0.000000     0.000000

                             2.000000     2.000000     2.000000     2.000000


                                5            6            7            8
                             0.000000     0.000000     0.000000     0.000000

                             0.000000     0.000000     0.000000     0.000000


                                9           10           11           12
                             0.000000     0.000000     0.000000     0.000000

                             0.000000     0.000000     0.000000     0.000000


                               13           14           15           16
                             0.000000     0.000000     0.000000     0.000000

                             0.000000     0.000000     0.000000     0.000000


                               17
                             0.000000

                             0.000000




 -------------------------------------------------------------------------------
 -                                                                             -
 -                                T I M I N G                                  -
 -                                                                             -
 -------------------------------------------------------------------------------
 SUBROUTINE                        CALLS  CPU TIME T  PERFORMANCE   ELAPSED TIME
 CP2K                                  1     77.99 I       ---             88.86
 Quickstep                             1     77.99 I       ---             88.86
 scf                                   1     77.93 I       ---             88.80
 qs_ks_build_kohn_sham_matrix         24     73.54 I       ---             84.35
 fft_wrap_pw1pw2                     241     42.22 I       ---             47.98
 fft3d_s                             242     31.25 I       ---             35.08
 calculate_rho_elec                   24     31.13 I       ---             35.46
 integrate_v_rspace                   24     21.72 I       ---             24.65
 rs_pw_transfer                      193      8.27 I       ---              9.62
 pw_copy                             216      6.36 I   7.0 Mcopy            7.54
 calculate_xc_potential               24      4.05 I       ---              4.45
 pw_scatter                          120      3.15 I   3.1 Mcopy            3.99
 cp_opt_gerd_f_step,cp_lbfgs_opt     308      3.11 I       ---              3.12
 pw_gather                           121      1.94 I   5.1 Mcopy            1.95
 HARTREE                              24      1.77 I       ---              2.19
 pw_zero                              24      1.36 I  12.9 Mzero            1.51
 pw_grid_setup                         4      1.00 I       ---              1.03
 init_grid                             1      1.00 I       ---              1.04
 pw_add                               72      0.77 I  15.1 Mflops           1.03
 calculate_rho_core                    1      0.54 I       ---              0.61
 pw_sumup                             24      0.37 I  20.9 Mflops           0.44
 pw_grid_sort                          4      0.24 I       ---              0.24
 init_cube_info                        4      0.23 I       ---              0.24
 -------------------------------------------------------------------------------


  **** **** ******  **  PROGRAM ENDED AT                Fri Jul  5 16:37:28 2002
 ***** ** ***  *** **   PROGRAM RAN ON                           muralto.cscs.ch
 **    ****   ******    PROGRAM RAN BY                                     fawzi
 ***** **    ** ** **   PROGRAM PROCESS ID                                 10075
  **** **  *******  **  PROGRAM RAN IN                 /home/fawzi/cp2k/tests/QS
