       3
 i =        1, E =   1232949.8719032940
 Cu        -1.0000000000        0.0000000000        0.0000000000
 Cu         0.0000000000        0.0000000000        0.0000000000
 Cu         1.0000000000        0.0000000000        0.0000000000
       3
 i =        2, E =   1232949.8719032940
 Cu        -1.0000000000        0.0000000000        0.0000000000
 Cu         0.0000000000        0.0000000000        0.0000000000
 Cu         1.0000000000        0.0000000000        0.0000000000
       3
 i =        1, E =    812850.2163982524
 Cu        -1.1000000000        0.0000000000        0.0000000000
 Cu         0.0000000000        0.0000000000        0.0000000000
 Cu         1.0000000000        0.0000000000        0.0000000000
       3
 i =        2, E =    812850.2163982524
 Cu        -1.1000000000        0.0000000000        0.0000000000
 Cu         0.0000000000        0.0000000000        0.0000000000
 Cu         1.0000000000        0.0000000000        0.0000000000
       3
 i =        1, E =    108147.4345710296
 Cu        -1.2622679646        0.0000000000       -0.0000000000
 Cu        -0.0877320354       -0.0000000000        0.0000000000
 Cu         1.2500000000        0.0000000000        0.0000000000
       3
 i =        2, E =     38097.9769178128
 Cu        -1.5122679646       -0.0000000000        0.0000000000
 Cu         0.0721170032        0.0000000001       -0.0000000005
 Cu         1.3401509637        0.0000000005       -0.0000000000
       3
 i =        3, E =     32708.0184160489
 Cu        -1.5089052571       -0.0000047134        0.0000148713
 Cu         0.0612167370       -0.0002440722       -0.0003416470
 Cu         1.3476885223        0.0002487862        0.0003267753
       3
 i =        4, E =     10847.7211168728
 Cu        -1.5085609738        0.0053131024        0.0079381602
 Cu         0.0600983794       -0.1840570384       -0.2503416470
 Cu         1.3484625975        0.1787439368        0.2424034854
       3
 i =        5, E =      2138.3873768467
 Cu        -1.5299792354        0.0228389073        0.0318254238
 Cu         0.1598776036       -0.3680601737       -0.5003416470
 Cu         1.2701016349        0.3452212672        0.4685162219
       3
 i =        6, E =      2146.5972653508
 Cu        -1.5305236275        0.2082699796        0.2818254238
 Cu         0.1623897243       -0.4510336398       -0.6125131129
 Cu         1.2681339062        0.2427636610        0.3306876881
       3
 i =        7, E =      1396.7788967186
 Cu        -1.5315099474        0.3971628005        0.1466483376
 Cu         0.1672474492       -0.3899264609       -0.6747604945
 Cu         1.2642625013       -0.0072363390        0.5281121565
       3
 i =        8, E =       403.8679915227
 Cu        -1.5453988523        0.3913816533        0.1448412403
 Cu         0.2373424319       -0.6341453137       -0.7313998165
 Cu         1.2080564236        0.2427636610        0.5865585759
       3
 i =        9, E =       242.5338869705
 Cu        -1.5496711242        0.1413816533        0.3222910544
 Cu         0.2590980752       -0.6189605498       -0.8155132876
 Cu         1.1905730517        0.4775788968        0.4932222321
       3
 i =       10, E =       198.9427979569
 Cu        -1.5508552996       -0.1086183467        0.5037736997
 Cu         0.2651396825       -0.5233885943       -0.9058623046
 Cu         1.1857156194        0.6320069413        0.4020886035
       3
 i =       11, E =        66.7029218243
 Cu        -1.5584460256        0.0014450426        0.5075768718
 Cu         0.3039133294       -0.7733885943       -0.8932527705
 Cu         1.1545326986        0.7719435520        0.3856758973
       3
 i =       12, E =        31.2066196823
 Cu        -1.5634335861        0.1810778481        0.4488894799
 Cu         0.3294188129       -0.9920758509       -0.8527037164
 Cu         1.1340147759        0.8109980031        0.4038142353
       3
 i =       13, E =        16.3274547078
 Cu        -1.5677215102        0.4310778481        0.3352228868
 Cu         0.3513201833       -1.2270300166       -0.7861749926
 Cu         1.1164013301        0.7959521688        0.4509521047
       3
 i =       14, E =        10.0074938548
 Cu        -1.5713356585        0.6810778481        0.2101057277
 Cu         0.3697403256       -1.4445184300       -0.7154287923
 Cu         1.1015953367        0.7634405821        0.5053230634
       3
 i =       15, E =         6.6385401050
 Cu        -1.5745099670        0.9310778481        0.0774513446
 Cu         0.3858834902       -1.6504368571       -0.6419991822
 Cu         1.0886264812        0.7193590091        0.5645478361
       3
 i =       16, E =         4.2758301954
 Cu        -1.5772816574        1.1810778481       -0.0604738393
 Cu         0.3999629619       -1.8456233998       -0.5669878090
 Cu         1.0773187005        0.6645455518        0.6274616464
       3
 i =       17, E =         2.5217586577
 Cu        -1.5798681347        1.4310778481       -0.2004471310
 Cu         0.4130995449       -2.0358588795       -0.4914443326
 Cu         1.0667685953        0.6047810316        0.6918914617
       3
 i =       18, E =         1.3751398390
 Cu        -1.5824097089        1.6810778481       -0.3408016084
 Cu         0.4260103913       -2.2248969127       -0.4158297910
 Cu         1.0563993238        0.5438190648        0.7566313976
       3
 i =       19, E =         0.7166742345
 Cu        -1.5849646276        1.9310778481       -0.4809364302
 Cu         0.4389915163       -2.4142980696       -0.3402885218
 Cu         1.0459731182        0.4832202217        0.8212249500
       3
 i =       20, E =         0.3664025694
 Cu        -1.5875461218        2.1810778481       -0.6207457371
 Cu         0.4521093965       -2.6044162145       -0.2648378118
 Cu         1.0354367329        0.4233383666        0.8855835466
       3
 i =       21, E =         0.1856015536
 Cu        -1.5901495613        2.4310778481       -0.7602983408
 Cu         0.4653398388       -2.7951259599       -0.1894557073
 Cu         1.0248097307        0.3640481119        0.9497540454
       3
 i =       22, E =         0.0914724747
 Cu        -1.5927670115        2.6810778481       -0.8996902133
 Cu         0.4786420514       -2.9862133644       -0.1141157416
 Cu         1.0141249687        0.3051355163        1.0138059518
       3
 i =       23, E =         0.0412547916
 Cu        -1.5953916816        2.9310778481       -1.0389983378
 Cu         0.4919812415       -3.1774954154       -0.0387978531
 Cu         1.0034104492        0.2464175671        1.0777961874
       3
 i =       24, E =         0.0170286071
 Cu        -1.5980207947        3.1810778481       -1.1782580052
 Cu         0.5053431482       -3.3688972839        0.0365079594
 Cu         0.9926776560        0.1878194353        1.1417500422
       3
 i =       25, E =         0.0123539628
 Cu        -1.5996999459        3.3403548445       -1.2669458908
 Cu         0.5138771051       -3.4909523029        0.0844792930
 Cu         0.9858228505        0.1505974576        1.1824665941
       3
 i =       26, E =         0.0123225036
 Cu        -1.5997845162        3.3479466480       -1.2711395600
 Cu         0.5143068952       -3.4968926495        0.0867613033
 Cu         0.9854776308        0.1489460007        1.1843782530
       3
 i =       27, E =         0.0122668850
 Cu        -1.5998720150        3.3549284323       -1.2749245196
 Cu         0.5147515214       -3.5026187740        0.0888504094
 Cu         0.9851205033        0.1476903408        1.1860741064
       3
 i =       28, E =         0.0120708567
 Cu        -1.6000800767        3.3688674727       -1.2822349582
 Cu         0.5158086467       -3.5149538301        0.0929885519
 Cu         0.9842714396        0.1460863565        1.1892464025
       3
 i =       29, E =         0.0116113767
 Cu        -1.6004138197        3.3851738588       -1.2901205197
 Cu         0.5175040123       -3.5318282652        0.0977409047
 Cu         0.9829098168        0.1466544053        1.1923796112
       3
 i =       30, E =         0.0103810871
 Cu        -1.6010570878        3.4021477377       -1.2961463935
 Cu         0.5207709459       -3.5573985717        0.1023976762
 Cu         0.9802861509        0.1552508325        1.1937487134
       3
 i =       31, E =         0.0073597556
 Cu        -1.6022575574        3.4025123582       -1.2875221959
 Cu         0.5268660334       -3.5900548457        0.1013340347
 Cu         0.9753915317        0.1875424850        1.1861881569
       3
 i =       32, E =         0.0004600917
 Cu        -1.6045381737        3.3417403892       -1.2321336194
 Cu         0.5384420144       -3.6225257238        0.0801658084
 Cu         0.9660961641        0.2807853295        1.1519678061
       3
 i =       33, E =        -0.0087322831
 Cu        -1.6080683006        3.1603390123       -1.0909757300
 Cu         0.5563556269       -3.6307734753        0.0201924129
 Cu         0.9517126729        0.4704344530        1.0707833112
       3
 i =       34, E =        -0.0097247010
 Cu        -1.6087216910        3.0826497351       -1.0368602709
 Cu         0.5596688367       -3.6110784440       -0.0046478503
 Cu         0.9490528520        0.5284286975        1.0415081152
       3
 i =       35, E =        -0.0100423897
 Cu        -1.6080738584        3.0885541899       -1.0453965273
 Cu         0.5563798446       -3.5963908534       -0.0021680359
 Cu         0.9516940123        0.5078366528        1.0475645574
       3
 i =       36, E =        -0.0091846516
 Cu        -1.6043881292        3.0799993803       -1.0672286802
 Cu         0.5376653199       -3.4925529402       -0.0011832304
 Cu         0.9667228120        0.4125535526        1.0684119058
       3
 i =       37, E =        -0.0104726671
 Cu        -1.6068661922        3.0746294249       -1.0455041000
 Cu         0.5502471264       -3.5570173154       -0.0053042383
 Cu         0.9566190656        0.4823878807        1.0508083328
       3
 i =       38, E =        -0.0104837431
 Cu        -1.6067100739        3.0711239910       -1.0444436631
 Cu         0.5494541612       -3.5511071938       -0.0062370544
 Cu         0.9572559127        0.4799831931        1.0506807120
       3
 i =       39, E =        -0.0104848244
 Cu        -1.6066702264        3.0693656611       -1.0436352722
 Cu         0.5492516128       -3.5491834900       -0.0067391046
 Cu         0.9574186136        0.4798178191        1.0503743713
       3
 i =       40, E =        -0.0104851216
 Cu        -1.6066670684        3.0689381051       -1.0434003511
 Cu         0.5492354208       -3.5488926710       -0.0068627504
 Cu         0.9574316476        0.4799545562        1.0502630960
       3
 i =       41, E =        -0.0104869748
 Cu        -1.6066583195        3.0671349996       -1.0424277459
 Cu         0.5491897997       -3.5477910687       -0.0073631671
 Cu         0.9574685198        0.4806560594        1.0497909076
       3
 i =       42, E =        -0.0104905582
 Cu        -1.6066497459        3.0650016934       -1.0413776705
 Cu         0.5491436755       -3.5465385119       -0.0079009723
 Cu         0.9575060703        0.4815368088        1.0492786374
       3
 i =       43, E =        -0.0105012035
 Cu        -1.6066356456        3.0610180723       -1.0397255584
 Cu         0.5490639112       -3.5442588452       -0.0087482014
 Cu         0.9575717343        0.4832407631        1.0484737543
       3
 i =       44, E =        -0.0105278518
 Cu        -1.6066172736        3.0547728146       -1.0379207480
 Cu         0.5489494360       -3.5408051579       -0.0096799896
 Cu         0.9576678377        0.4860323335        1.0476007321
       3
 i =       45, E =        -0.0105989799
 Cu        -1.6065955160        3.0441803253       -1.0369069049
 Cu         0.5487811862       -3.5352518203       -0.0102276909
 Cu         0.9578143299        0.4910714850        1.0471345902
       3
 i =       46, E =        -0.0107840188
 Cu        -1.6065828964        3.0263480954       -1.0403714188
 Cu         0.5485646797       -3.5266788518       -0.0085405245
 Cu         0.9580182172        0.5003307461        1.0489119373
       3
 i =       47, E =        -0.0112663917
 Cu        -1.6066222520        2.9951490391       -1.0591867911
 Cu         0.5483615908       -3.5136539301        0.0008522723
 Cu         0.9582606629        0.5185048801        1.0583345117
       3
 i =       48, E =        -0.0124721478
 Cu        -1.6068479350        2.9389020366       -1.1223839116
 Cu         0.5484673533       -3.4950771851        0.0326072456
 Cu         0.9583805863        0.5561751361        1.0897766562
       3
 i =       49, E =        -0.0149042512
 Cu        -1.6076098670        2.8410277303       -1.2870582303
 Cu         0.5499337379       -3.4740990278        0.1157713026
 Cu         0.9576761404        0.6330712818        1.1712869116
       3
 i =       50, E =        -0.0171693353
 Cu        -1.6090517412        2.7349014568       -1.5171862056
 Cu         0.5540711271       -3.4693367758        0.2329642419
 Cu         0.9549806342        0.7344352988        1.2842219386
       3
 i =       51, E =        -0.0179371322
 Cu        -1.6109000341        2.6767603145       -1.6689259371
 Cu         0.5613661502       -3.4961545707        0.3126068797
 Cu         0.9495339091        0.8193942321        1.3563190256
       3
 i =       52, E =        -0.0182730370
 Cu        -1.6118279666        2.6876307832       -1.6896891120
 Cu         0.5658644756       -3.5269802178        0.3252778794
 Cu         0.9459635160        0.8393494096        1.3644111997
       3
 i =       53, E =        -0.0194570756
 Cu        -1.6154898656        2.8090628141       -1.6797799795
 Cu         0.5850816546       -3.6830603176        0.3300028261
 Cu         0.9304082310        0.8739974764        1.3497771199
       3
 i =       54, E =        -0.0196463784
 Cu        -1.6176459503        2.9030383337       -1.6633392907
 Cu         0.5966542146       -3.7851843010        0.3275447212
 Cu         0.9209917519        0.8821459393        1.3357945362
       3
 i =       55, E =        -0.0197161955
 Cu        -1.6175242207        2.8818298191       -1.6971931969
 Cu         0.5955563379       -3.7727845370        0.3439047780
 Cu         0.9219679007        0.8909546895        1.3532883843
       3
 i =       56, E =        -0.0197387900
 Cu        -1.6178586070        2.8881422504       -1.7191653497
 Cu         0.5970437023       -3.7853515007        0.3556015741
 Cu         0.9208149231        0.8972092215        1.3635637402
       3
 i =       57, E =        -0.0197472212
 Cu        -1.6180563084        2.8974961148       -1.7307497233
 Cu         0.5979746852       -3.7953685315        0.3618201060
 Cu         0.9200816417        0.8978723877        1.3689295815
       3
 i =       58, E =        -0.0197508492
 Cu        -1.6180009132        2.9025928703       -1.7319977917
 Cu         0.5977184040       -3.7962651173        0.3622833542
 Cu         0.9202825278        0.8936722181        1.3697144017
       3
 i =       59, E =        -0.0197600047
 Cu        -1.6175355329        2.9131605702       -1.7275301834
 Cu         0.5955067714       -3.7884124207        0.3588418295
 Cu         0.9220287802        0.8752518223        1.3686883187
       3
 i =       60, E =        -0.0197693256
 Cu        -1.6165445093        2.9228570593       -1.7129137746
 Cu         0.5907652349       -3.7656002357        0.3490121414
 Cu         0.9257792933        0.8427431494        1.3639015992
       3
 i =       61, E =        -0.0197723899
 Cu        -1.6161961773        2.9201509406       -1.7048285936
 Cu         0.5890887018       -3.7546626075        0.3441112974
 Cu         0.9271074945        0.8345116403        1.3607172627
       3
 i =       62, E =        -0.0197734102
 Cu        -1.6161752963        2.9145670206       -1.7010090197
 Cu         0.5889868206       -3.7514012086        0.3421805137
 Cu         0.9271884947        0.8368341614        1.3588284725
       3
 i =       63, E =        -0.0197734172
 Cu        -1.6161641615        2.9150617949       -1.7008981976
 Cu         0.5889355414       -3.7513260295        0.3420960580
 Cu         0.9272286390        0.8362642079        1.3588021060
       3
 i =       64, E =        -0.0197734173
 Cu        -1.6161658079        2.9150710126       -1.7009010604
 Cu         0.5889438070       -3.7513752714        0.3421018513
 Cu         0.9272220198        0.8363042321        1.3587991756
       3
 i =       65, E =        -0.0197734175
 Cu        -1.6161668310        2.9150788253       -1.7008888928
 Cu         0.5889491012       -3.7514065991        0.3420986402
 Cu         0.9272177487        0.8363277471        1.3587902191
       3
 i =       66, E =        -0.0197734180
 Cu        -1.6161686648        2.9150931246       -1.7008670087
 Cu         0.5889585943       -3.7514631032        0.3420929858
 Cu         0.9272100893        0.8363699519        1.3587739894
       3
 i =       67, E =        -0.0197734192
 Cu        -1.6161715030        2.9151154361       -1.7008332275
 Cu         0.5889732904       -3.7515511956        0.3420846320
 Cu         0.9271982315        0.8364357329        1.3587485620
       3
 i =       68, E =        -0.0197734224
 Cu        -1.6161761333        2.9151523089       -1.7007783757
 Cu         0.5889972733       -3.7516966006        0.3420720690
 Cu         0.9271788789        0.8365442650        1.3587062732
       3
 i =       69, E =        -0.0197734306
 Cu        -1.6161834944        2.9152121712       -1.7006918597
 Cu         0.5890354201       -3.7519322015        0.3420548987
 Cu         0.9271480931        0.8367200037        1.3586369275
       3
 i =       70, E =        -0.0197734523
 Cu        -1.6161952035        2.9153106855       -1.7005560779
 Cu         0.5890961536       -3.7523187548        0.3420350284
 Cu         0.9270990687        0.8370080427        1.3585210159
       3
 i =       71, E =        -0.0197735091
 Cu        -1.6162135392        2.9154736971       -1.7003484574
 Cu         0.5891913983       -3.7529554772        0.3420238094
 Cu         0.9270221596        0.8374817535        1.3583246144
       3
 i =       72, E =        -0.0197736577
 Cu        -1.6162416721        2.9157473032       -1.7000438385
 Cu         0.5893379100       -3.7540172190        0.3420605534
 Cu         0.9269037807        0.8382698892        1.3579832515
       3
 i =       73, E =        -0.0197740466
 Cu        -1.6162831910        2.9162152784       -1.6996345316
 Cu         0.5895551450       -3.7558176930        0.3422644247
 Cu         0.9267280643        0.8396023882        1.3573700732
       3
 i =       74, E =        -0.0197750640
 Cu        -1.6163401279        2.9170378884       -1.6991962534
 Cu         0.5898558392       -3.7589530248        0.3429754943
 Cu         0.9264843061        0.8419151108        1.3562207250
       3
 i =       75, E =        -0.0197777257
 Cu        -1.6164064215        2.9185363754       -1.6990974601
 Cu         0.5902140172       -3.7646326164        0.3451380764
 Cu         0.9261924197        0.8460962171        1.3539593488
       3
 i =       76, E =        -0.0197846985
 Cu        -1.6164507731        2.9213873995       -1.7006484323
 Cu         0.5904799135       -3.7755463418        0.3513616583
 Cu         0.9259708700        0.8541589229        1.3492867370
       3
 i =       77, E =        -0.0198032491
 Cu        -1.6163806909        2.9271085987       -1.7082728012
 Cu         0.5901979789       -3.7986016519        0.3690977164
 Cu         0.9261827093        0.8714930462        1.3391750419
       3
 i =       78, E =        -0.0198605948
 Cu        -1.6160043191        2.9400349417       -1.7397194058
 Cu         0.5883926066       -3.8589716135        0.4244874608
 Cu         0.9276116724        0.9189367004        1.3152318853
       3
 i =       79, E =        -0.0202911731
 Cu        -1.6152775317        2.9832125527       -1.8923875694
 Cu         0.5846857659       -4.1089716135        0.6553614618
 Cu         0.9305915827        1.1257592256        1.2370259816
       3
 i =       80, E =        -0.0190762642
 Cu        -1.6159838437        3.0259246922       -2.0596405334
 Cu         0.5877988573       -4.3589716135        0.8721231580
 Cu         0.9281846838        1.3330471989        1.1875171919
       3
 i =       81, E =        -0.0203666223
 Cu        -1.6151476884        3.0014834708       -1.9230787344
 Cu         0.5839497431       -4.1367680899        0.6842666782
 Cu         0.9311977502        1.1352847963        1.2388119239
       3
 i =       82, E =        -0.0204064816
 Cu        -1.6146687933        3.0066439978       -1.9374588618
 Cu         0.5815685223       -4.1523532319        0.7066572575
 Cu         0.9331000611        1.1457094259        1.2308014653
       3
 i =       83, E =        -0.0204701974
 Cu        -1.6117131939        3.0406380847       -2.0014170344
 Cu         0.5670271171       -4.2257031502        0.8177395278
 Cu         0.9446857892        1.1850653352        1.1836773333
       3
 i =       84, E =        -0.0204927399
 Cu        -1.6116541527        3.0385255512       -1.9839696917
 Cu         0.5668111446       -4.2051771845        0.7977678849
 Cu         0.9448427306        1.1666518935        1.1862016386
       3
 i =       85, E =        -0.0205162315
 Cu        -1.6102132526        3.0502680191       -1.9795256572
 Cu         0.5598683847       -4.1996196925        0.8098945680
 Cu         0.9503445742        1.1493519508        1.1696309148
       3
 i =       86, E =        -0.0205768175
 Cu        -1.6028447882        3.1117263763       -1.9786350639
 Cu         0.5242599403       -4.1948623615        0.8970674518
 Cu         0.9785844591        1.0831363624        1.0815674002
       3
 i =       87, E =        -0.0205807436
 Cu        -1.6012764726        3.1224778156       -1.9832382620
 Cu         0.5166404353       -4.1977785587        0.9211236098
 Cu         0.9846356255        1.0753011443        1.0621144310
       3
 i =       88, E =        -0.0205815430
 Cu        -1.6011583451        3.1222033343       -1.9869774288
 Cu         0.5160396569       -4.2006598898        0.9265846284
 Cu         0.9851182729        1.0784569601        1.0603925776
       3
 i =       89, E =        -0.0205816906
 Cu        -1.6013094983        3.1209548638       -1.9892369735
 Cu         0.5167561682       -4.2026533302        0.9270770160
 Cu         0.9845529158        1.0816988699        1.0621597349
       3
 i =       90, E =        -0.0205816944
 Cu        -1.6013385476        3.1209641206       -1.9894125574
 Cu         0.5168971936       -4.2029466536        0.9269160545
 Cu         0.9844409400        1.0819829362        1.0624962805
       3
 i =       91, E =        -0.0205816960
 Cu        -1.6013448974        3.1211155472       -1.9894807529
 Cu         0.5169292537       -4.2031934071        0.9269673881
 Cu         0.9844152297        1.0820782631        1.0625131424
       3
 i =       92, E =        -0.0205816966
 Cu        -1.6013385469        3.1212715453       -1.9894942133
 Cu         0.5168997156       -4.2033626280        0.9271295204
 Cu         0.9844384171        1.0820914860        1.0623644704
       3
 i =       93, E =        -0.0205816967
 Cu        -1.6013318623        3.1213349526       -1.9894824904
 Cu         0.5168678042       -4.2034079770        0.9272329327
 Cu         0.9844636437        1.0820734279        1.0622493352
       3
 i =       94, E =        -0.0205816967
 Cu        -1.6013303236        3.1213381281       -1.9894768826
 Cu         0.5168603670       -4.2034036973        0.9272493385
 Cu         0.9844695422        1.0820659726        1.0622273215
       3
 i =       95, E =        -0.0205816967
 Cu        -1.6013301430        3.1213370080       -1.9894758390
 Cu         0.5168594823       -4.2034012993        0.9272503136
 Cu         0.9844702463        1.0820646948        1.0622253029
       3
 i =       96, E =        -0.0205816967
 Cu        -1.6013297846        3.1213342721       -1.9894736313
 Cu         0.5168577218       -4.2033958915        0.9272519278
 Cu         0.9844716484        1.0820620228        1.0622214809
       3
 i =       97, E =        -0.0205816967
 Cu        -1.6013292820        3.1213303496       -1.9894705081
 Cu         0.5168552511       -4.2033881940        0.9272541432
 Cu         0.9844736165        1.0820582478        1.0622161423
       3
 i =       98, E =        -0.0205816967
 Cu        -1.6013284273        3.1213236563       -1.9894651797
 Cu         0.5168510469       -4.2033750583        0.9272579108
 Cu         0.9844769660        1.0820518055        1.0622070463
       3
 i =       99, E =        -0.0205816967
 Cu        -1.6013270767        3.1213130516       -1.9894567227
 Cu         0.5168443954       -4.2033542203        0.9272638870
 Cu         0.9844822669        1.0820415723        1.0621926131
       3
 i =      100, E =        -0.0205816968
 Cu        -1.6013248880        3.1212957986       -1.9894429216
 Cu         0.5168335954       -4.2033202455        0.9272736342
 Cu         0.9844908781        1.0820248505        1.0621690647
       3
 i =      101, E =        -0.0205816971
 Cu        -1.6013213914        3.1212680610       -1.9894206223
 Cu         0.5168162878       -4.2032654318        0.9272893703
 Cu         0.9845046892        1.0819977744        1.0621310293
       3
 i =      102, E =        -0.0205816978
 Cu        -1.6013158185        3.1212233861       -1.9893844138
 Cu         0.5167885576       -4.2031766413        0.9273148874
 Cu         0.9845268465        1.0819536588        1.0620693038
       3
 i =      103, E =        -0.0205816997
 Cu        -1.6013070429        3.1211517994       -1.9893256234
 Cu         0.5167445069       -4.2030330314        0.9273562288
 Cu         0.9845621214        1.0818816357        1.0619691720
       3
 i =      104, E =        -0.0205817045
 Cu        -1.6012934636        3.1210377015       -1.9892298839
 Cu         0.5166753111       -4.2028006156        0.9274233170
 Cu         0.9846177379        1.0817633180        1.0618063442
       3
 i =      105, E =        -0.0205817171
 Cu        -1.6012731218        3.1208576850       -1.9890734127
 Cu         0.5165688297       -4.2024245468        0.9275323420
 Cu         0.9847038775        1.0815672658        1.0615408480
       3
 i =      106, E =        -0.0205817502
 Cu        -1.6012444690        3.1205784272       -1.9888161100
 Cu         0.5164108569       -4.2018159358        0.9277099896
 Cu         0.9848331978        1.0812379130        1.0611058979
       3
 i =      107, E =        -0.0205818367
 Cu        -1.6012092552        3.1201581126       -1.9883889639
 Cu         0.5161927148       -4.2008308668        0.9280005733
 Cu         0.9850161272        1.0806731592        1.0603881684
       3
 i =      108, E =        -0.0205820627
 Cu        -1.6011814083        3.1195607885       -1.9876693271
 Cu         0.5159376549       -4.1992359062        0.9284785909
 Cu         0.9852433436        1.0796755238        1.0591905153
       3
 i =      109, E =        -0.0205826526
 Cu        -1.6012123357        3.1188117078       -1.9864296338
 Cu         0.5157803447       -4.1966513112        0.9292708510
 Cu         0.9854315910        1.0778400109        1.0571585655
       3
 i =      110, E =        -0.0205841872
 Cu        -1.6014597520        3.1181708406       -1.9842234823
 Cu         0.5161892010       -4.1924539182        0.9305944803
 Cu         0.9852701779        1.0742834873        1.0536287947
       3
 i =      111, E =        -0.0205881533
 Cu        -1.6023680256        3.1186305828       -1.9801141625
 Cu         0.5185576650       -4.1855948117        0.9328119816
 Cu         0.9838100596        1.0669646421        1.0473020004
       3
 i =      112, E =        -0.0205982684
 Cu        -1.6051194915        3.1232595239       -1.9719672779
 Cu         0.5266931858       -4.1741642538        0.9364483601
 Cu         0.9784261941        1.0509051477        1.0355188075
       3
 i =      113, E =        -0.0206236104
 Cu        -1.6127166359        3.1406706207       -1.9542577892
 Cu         0.5503691639       -4.1537668895        0.9417828602
 Cu         0.9623478467        1.0130966917        1.0124749995
       3
 i =      114, E =        -0.0206921806
 Cu        -1.6336661317        3.1966007978       -1.9066745612
 Cu         0.6170591675       -4.1061637804        0.9458784483
 Cu         0.9166086418        0.9095634083        0.9607966676
       3
 i =      115, E =        -0.0207015239
 Cu        -1.6800109165        3.3239633015       -1.7845679491
 Cu         0.7648595951       -3.9835262891        0.9329662641
 Cu         0.8151558869        0.6595634083        0.8516033145
       3
 i =      116, E =        -0.0207570890
 Cu        -1.6495720833        3.2381136359       -1.8644548744
 Cu         0.6700282434       -4.0805271228        0.9292198234
 Cu         0.8795464407        0.8424138975        0.9352359504
       3
 i =      117, E =        -0.0207881813
 Cu        -1.6583471715        3.2653544380       -1.8409432073
 Cu         0.6988863522       -4.0663308783        0.9227249191
 Cu         0.8594639410        0.8009768458        0.9182193816
       3
 i =      118, E =        -0.0207766816
 Cu        -1.6892524139        3.3462998854       -1.7569292596
 Cu         0.8017966802       -4.0096690350        0.8848991768
 Cu         0.7874606538        0.6633695227        0.8720318468
       3
 i =      119, E =        -0.0208158161
 Cu        -1.6710967091        3.2968646128       -1.8097472411
 Cu         0.7426582198       -4.0531323105        0.9017709795