       8
 i =        0, time =        0.000, E =        -0.0105128577
  O         4.2570000000        3.6850000000        7.0480000000
  H         3.5050000000        3.0650000000        6.8190000000
  H         4.1640000000        4.5290000000        6.5180000000
  H         4.1490000000        3.7140000000        6.9510000000
  O         6.6500000000        2.0430000000        6.2640000000
  H         5.8720000000        2.5830000000        6.5860000000
  H         7.2970000000        1.9100000000        7.0150000000
  H         6.6330000000        2.0950000000        6.4010000000
