 
  **** **** ******  **  PROGRAM STARTED AT              Sun Sep 22 18:45:26 2002
 ***** ** ***  *** **   PROGRAM STARTED ON             frost067.pacific.llnl.gov
 **    ****   ******    PROGRAM STARTED BY                               cjmundy
 ***** **    ** ** **   PROGRAM PROCESS ID                                 65644
  **** **  *******  **  PROGRAM STARTED IN 
                                /g/g20/cjmundy/cp2k5/cp2k/tests/Fist/Al2O3_solid
 
 CP2K| Program compiled at                          Sat Sep 21 17:58:24 PDT 2002
 CP2K| Program compiled on                             frost067.pacific.llnl.gov
 CP2K| Program compiled for                                   AIX-PowerPC_POWER3
 CP2K| Program name                                                         FIST
 CP2K| Input file name                                                     input
 CP2K| Project name                                                        al2o3
 CP2K| Default FFT library                                                  FFTW
 CP2K| Default basis set file                                          BASIS_SET
 CP2K| Default external potential file                                 POTENTIAL
 CP2K| Default library path                                                   ./
 CP2K| Global print level                                                      1
 CP2K| Total number of processors                                              1
 CP2K| This output from processor                                              0
 
 CONTROL| Run type                                                            MD
 CONTROL| Unit type                                                       KELVIN
 CONTROL| Use of symmetry                                                     No
 CONTROL| Path Integrals                                                      No
 CONTROL| Set file name                                                al2o3.set
 CONTROL| Data file name                                               al2o3.dat
 CONTROL| Topology file name                                           al2o3.top
 CONTROL| Print level                                                          1



                      ************* ******** ***********   
                     ************* **********************  
                     ****     **** ****      ***********   
                     ******** ****  *******     ****       
                     *******  ****   *******   ****        
                     ****     ****       ****  ****        
                     ****     **** **********  ****        
                      ****     **** ********    ****       
                     FRONTIERS IN SIMULATION TECHNOLOGY    
                                                           
                     C.J. Mundy, S. Balasubramanian,       
                     Ken Bagchi, J. Hutter, Ari Seitsonen  
                                 Version 0.3               
                                                                           


 MOLECULE| Number of molecule types                                            2
 MOLECULE| Molecule type Molecule name           Molecules           Nose option
 MOLECULE|      1             aluminum              500                   GLOBAL
 MOLECULE|      2               oxygen              750                   GLOBAL

 CELL| Reference Cell 
 CELL| Periodic in X direction                                               YES
 CELL| Periodic in Y direction                                               YES
 CELL| Periodic in Z direction                                               YES
 CELL| Poisson Solver                                                   STANDARD
 CELL| Parameters                                    26.2236   15.3935   15.3881
 CELL|                                                0.5082   21.2251    8.0431
 CELL|                                                0.3521    0.3399   19.6199

 MOLECULE| Molecule name                                                aluminum
 MOLECULE| Number of atoms                                                     1
 MOLECULE| Number of atom types                                                1
 MOLECULE|                             Atom                  Weight       Charge
 MOLECULE|                             Al                  26.98000      1.20000

 MOLECULE| Molecule name                                                  oxygen
 MOLECULE| Number of atoms                                                     1
 MOLECULE| Number of atom types                                                1
 MOLECULE|                             Atom                  Weight       Charge
 MOLECULE|                             O                   15.99400     -0.80000
 FORCE FIELD| Non-bonded interaction parameters
 FORCE FIELD| Williams       Al     Al                A[K]            0.2518E+15
 FORCE FIELD|                                     B [A^-1]               10.9250
 FORCE FIELD|                                    C [K A^6]            0.2013E+07
 FORCE FIELD|                                     rcut [A]                8.5000
 FORCE FIELD| Williams       Al     O                 A[K]            0.1287E+11
 FORCE FIELD|                                     B [A^-1]                8.3500
 FORCE FIELD|                                    C [K A^6]            0.5000E+04
 FORCE FIELD|                                     rcut [A]                8.5000
 FORCE FIELD| Williams       O      O                 A[K]            0.1136E+08
 FORCE FIELD|                                     B [A^-1]                2.7600
 FORCE FIELD|                                    C [K A^6]            0.2023E+07
 FORCE FIELD|                                     rcut [A]                8.5000

 MD| Molecular Dynamics Protocol 
 MD| Ensemble Type                                                         NPT_F
 MD| Restart Type                                                         POSVEL
 MD| Number of Time Steps                                                   2000
 MD| Time Step [fs]                                                         3.00
 MD| Temperature [K]                                                      298.00
 MD| Verlet buffer skin [Angstrom]                                          1.00
 MD| Nose-Hoover-Chain parameters 
 MD| Nose-Hoover-Chain length                                                  1
 MD| Nose-Hoover-Chain time constant [fs]                              1000.0000
 MD| Order of Yoshida integrator                                               3
 MD| Number of multiple time steps                                             2
 MD| Pressure [bar]                                                         0.00
 MD| Barostat time constant [fs]                                       1000.0000
 MD| Print MD information every                                        1 step(s)
 MD| File type     Print frequency[steps]                             File names
 MD| Coordinates            5                                          al2o3.crd
 MD| Velocities             5                                          al2o3.vel
 MD| Energies               5                                         al2o3.ener
 MD| Temperature            5                                         al2o3.temp
 MD| Pressure Tensor        5                                        al2o3.ptens
 MD| Dump                   5                                         al2o3.dump
 
 ATOM| No input section &ATOMS found 
 ATOM| Try to read default file                                        al2o3.dat
 ATOM| Box parameters [Angstrom]
 ATOM|                                    26.22365       15.39353       15.38814
 ATOM|                                     0.50824       21.22507        8.04314
 ATOM|                                     0.35210        0.33988       19.61994
 ATOM| Number of atoms read                                                 1250

 Ewald| Summation is done by:                                              EWALD
 Ewald| Alpha parameter [A]                                               0.3680
 Ewald| G-space max. Miller index                                             21

 PW_GRID: Information for grid number                                          1
 PW_GRID:                         spherical cutoff                      5.3 a.u.
 PW_GRID: Grid points within cutoff                                         2481
 PW_GRID:   Bounds   1            -10      10                Points:          21
 PW_GRID:   Bounds   2            -10      10                Points:          21
 PW_GRID:   Bounds   3            -10      10                Points:          21
 PW_GRID: Volume element (a.u.^3)   1.147         Volume (a.u.^3)     10626.5024
 PW_GRID: Grid span                                                    HALFSPACE


 ********************** cell_index: nonbonded neighbor list*********************
 Total # of cells used for Verlet neighbor list                                1
 # of cells in each direction =                                1 X     1 X     1
 ************************** end subroutine cell_list ***************************

 *******************************************************************************
 INITIAL GSPACE ENERGY[K]         =                                0.3285524E+05
 SELF ENERGY CORRECTION[K]        =                               -0.4163232E+08
 NEUT. BACKGROUND[K]              =                               -0.1016149E-22
 BONDED CORRECTION[K]             =                                0.0000000E+00
 *******************************************************************************
 
 ENERGY| Initialization proceeding
 

 ******************************** GO CP2K GO! **********************************
 INITIAL POTENTIAL ENERGY[K]           =                          -0.8867285E+08
 INITIAL KINETIC ENERGY[K]             =                           0.5370354E+06
 INITIAL TEMPERATURE[K]                =                           0.2866482E+03
 INITIAL PRESSURE[bar]                 =                           0.4671531E+03
 INITIAL VOLUME[A^3]                   =                           0.1062650E+05
 INITIAL CELL LNTHS[A]      =      0.2623093E+02   0.2622175E+02   0.2619979E+02
 INITIAL CELL ANGLS[deg]    =      0.5293316E+02   0.5290236E+02   0.5291505E+02
 ******************************** GO CP2K GO! **********************************

 *******************************************************************************
 ENSEMBLE TYPE                =                                            NPT_F
 STEP NUMBER                  =                                                1
 CONSERVED QNTY               =                                   -0.8813427E+08

                                                   INSTANTANEOUS        AVERAGES
 {E-E0}/E0                    =                    0.0000000E+00   0.0000000E+00
 POTENTIAL ENERGY[K]          =                   -0.8867395E+08  -0.8867395E+08
 KINETIC ENERGY[K]            =                    0.5380832E+06   0.5380832E+06
 TEMPERATURE[K]               =                    0.2872075E+03   0.2872075E+03
 PRESSURE[bar]                =                    0.8876857E+03   0.8876857E+03
 VOLUME[A^3]                  =                    0.1062402E+05   0.1062402E+05
 CELL LNTHS[A]                =    0.2623264E+02   0.2622090E+02   0.2619808E+02
 AVE. CELL LNTHS[A]           =    0.2623264E+02   0.2622090E+02   0.2619808E+02
 CELL ANGLS[deg]              =    0.5292741E+02   0.5289786E+02   0.5290431E+02
 AVE. CELL ANGLS[deg]         =    0.5292741E+02   0.5289786E+02   0.5290431E+02
 LIST UPDATES[steps]          =                             0.00            0.00
 *******************************************************************************


 *******************************************************************************
 ENSEMBLE TYPE                =                                            NPT_F
 STEP NUMBER                  =                                                2
 CONSERVED QNTY               =                                   -0.8813430E+08

                                                   INSTANTANEOUS        AVERAGES
 {E-E0}/E0                    =                    0.3538727E-06   0.1769364E-06
 POTENTIAL ENERGY[K]          =                   -0.8867593E+08  -0.8867494E+08
 KINETIC ENERGY[K]            =                    0.5400753E+06   0.5390793E+06
 TEMPERATURE[K]               =                    0.2882708E+03   0.2877391E+03
 PRESSURE[bar]                =                    0.1073229E+04   0.9804573E+03
 VOLUME[A^3]                  =                    0.1062158E+05   0.1062280E+05
 CELL LNTHS[A]                =    0.2623439E+02   0.2622007E+02   0.2619639E+02
 AVE. CELL LNTHS[A]           =    0.2623351E+02   0.2622048E+02   0.2619723E+02
 CELL ANGLS[deg]              =    0.5292180E+02   0.5289356E+02   0.5289343E+02
 AVE. CELL ANGLS[deg]         =    0.5292461E+02   0.5289571E+02   0.5289887E+02
 LIST UPDATES[steps]          =                             0.00            0.00
 *******************************************************************************


 *******************************************************************************
 ENSEMBLE TYPE                =                                            NPT_F
 STEP NUMBER                  =                                                3
 CONSERVED QNTY               =                                   -0.8813429E+08

                                                   INSTANTANEOUS        AVERAGES
 {E-E0}/E0                    =                    0.2516440E-06   0.2018389E-06
 POTENTIAL ENERGY[K]          =                   -0.8867835E+08  -0.8867608E+08
 KINETIC ENERGY[K]            =                    0.5425766E+06   0.5402450E+06
 TEMPERATURE[K]               =                    0.2896059E+03   0.2883614E+03
 PRESSURE[bar]                =                    0.1087263E+04   0.1016059E+04
 VOLUME[A^3]                  =                    0.1061921E+05   0.1062161E+05
 CELL LNTHS[A]                =    0.2623619E+02   0.2621928E+02   0.2619472E+02
 AVE. CELL LNTHS[A]           =    0.2623441E+02   0.2622008E+02   0.2619640E+02
 CELL ANGLS[deg]              =    0.5291628E+02   0.5288939E+02   0.5288246E+02
 AVE. CELL ANGLS[deg]         =    0.5292183E+02   0.5289360E+02   0.5289340E+02
 LIST UPDATES[steps]          =                             0.00            0.00
 *******************************************************************************


 *******************************************************************************
 ENSEMBLE TYPE                =                                            NPT_F
 STEP NUMBER                  =                                                4
 CONSERVED QNTY               =                                   -0.8813432E+08

                                                   INSTANTANEOUS        AVERAGES
 {E-E0}/E0                    =                    0.6091534E-06   0.3036675E-06
 POTENTIAL ENERGY[K]          =                   -0.8868130E+08  -0.8867738E+08
 KINETIC ENERGY[K]            =                    0.5455720E+06   0.5415768E+06
 TEMPERATURE[K]               =                    0.2912047E+03   0.2890722E+03
 PRESSURE[bar]                =                    0.9998582E+03   0.1012009E+04
 VOLUME[A^3]                  =                    0.1061690E+05   0.1062043E+05
 CELL LNTHS[A]                =    0.2623803E+02   0.2621852E+02   0.2619311E+02
 AVE. CELL LNTHS[A]           =    0.2623531E+02   0.2621969E+02   0.2619558E+02
 CELL ANGLS[deg]              =    0.5291081E+02   0.5288529E+02   0.5287146E+02
 AVE. CELL ANGLS[deg]         =    0.5291908E+02   0.5289152E+02   0.5288792E+02
 LIST UPDATES[steps]          =                             0.00            0.00
 *******************************************************************************


 *******************************************************************************
 ENSEMBLE TYPE                =                                            NPT_F
 STEP NUMBER                  =                                                5
 CONSERVED QNTY               =                                   -0.8813434E+08

                                                   INSTANTANEOUS        AVERAGES
 {E-E0}/E0                    =                    0.7726728E-06   0.3974686E-06
 POTENTIAL ENERGY[K]          =                   -0.8868437E+08  -0.8867878E+08
 KINETIC ENERGY[K]            =                    0.5487266E+06   0.5430067E+06
 TEMPERATURE[K]               =                    0.2928885E+03   0.2898355E+03
 PRESSURE[bar]                =                    0.9299429E+03   0.9955958E+03
 VOLUME[A^3]                  =                    0.1061465E+05   0.1061927E+05
 CELL LNTHS[A]                =    0.2623991E+02   0.2621778E+02   0.2619158E+02
 AVE. CELL LNTHS[A]           =    0.2623623E+02   0.2621931E+02   0.2619478E+02
 CELL ANGLS[deg]              =    0.5290531E+02   0.5288120E+02   0.5286053E+02
 AVE. CELL ANGLS[deg]         =    0.5291632E+02   0.5288946E+02   0.5288244E+02
 LIST UPDATES[steps]          =                             0.00            0.00
 *******************************************************************************


 *******************************************************************************
 ENSEMBLE TYPE                =                                            NPT_F
 STEP NUMBER                  =                                                6
 CONSERVED QNTY               =                                   -0.8813431E+08

                                                   INSTANTANEOUS        AVERAGES
 {E-E0}/E0                    =                    0.5063457E-06   0.4156148E-06
 POTENTIAL ENERGY[K]          =                   -0.8868737E+08  -0.8868021E+08
 KINETIC ENERGY[K]            =                    0.5518585E+06   0.5444820E+06
 TEMPERATURE[K]               =                    0.2945602E+03   0.2906229E+03
 PRESSURE[bar]                =                    0.1000161E+04   0.9963567E+03
 VOLUME[A^3]                  =                    0.1061246E+05   0.1061814E+05
 CELL LNTHS[A]                =    0.2624180E+02   0.2621706E+02   0.2619016E+02
 AVE. CELL LNTHS[A]           =    0.2623716E+02   0.2621893E+02   0.2619401E+02
 CELL ANGLS[deg]              =    0.5289973E+02   0.5287706E+02   0.5284974E+02
 AVE. CELL ANGLS[deg]         =    0.5291356E+02   0.5288739E+02   0.5287699E+02
 LIST UPDATES[steps]          =                             0.00            0.00
 *******************************************************************************


 *******************************************************************************
 ENSEMBLE TYPE                =                                            NPT_F
 STEP NUMBER                  =                                                7
 CONSERVED QNTY               =                                   -0.8813437E+08

                                                   INSTANTANEOUS        AVERAGES
 {E-E0}/E0                    =                    0.1145107E-05   0.5198280E-06
 POTENTIAL ENERGY[K]          =                   -0.8869047E+08  -0.8868168E+08
 KINETIC ENERGY[K]            =                    0.5550365E+06   0.5459898E+06
 TEMPERATURE[K]               =                    0.2962565E+03   0.2914277E+03
 PRESSURE[bar]                =                    0.1288390E+04   0.1038076E+04
 VOLUME[A^3]                  =                    0.1061032E+05   0.1061702E+05
 CELL LNTHS[A]                =    0.2624366E+02   0.2621634E+02   0.2618887E+02
 AVE. CELL LNTHS[A]           =    0.2623809E+02   0.2621856E+02   0.2619327E+02
 CELL ANGLS[deg]              =    0.5289402E+02   0.5287288E+02   0.5283918E+02
 AVE. CELL ANGLS[deg]         =    0.5291077E+02   0.5288532E+02   0.5287159E+02
 LIST UPDATES[steps]          =                             0.00            0.00
 *******************************************************************************


 *******************************************************************************
 ENSEMBLE TYPE                =                                            NPT_F
 STEP NUMBER                  =                                                8
 CONSERVED QNTY               =                                   -0.8813454E+08

                                                   INSTANTANEOUS        AVERAGES
 {E-E0}/E0                    =                    0.3105410E-05   0.8430257E-06
 POTENTIAL ENERGY[K]          =                   -0.8869277E+08  -0.8868306E+08
 KINETIC ENERGY[K]            =                    0.5573204E+06   0.5474061E+06
 TEMPERATURE[K]               =                    0.2974755E+03   0.2921837E+03
 PRESSURE[bar]                =                    0.1803782E+04   0.1133789E+04
 VOLUME[A^3]                  =                    0.1060825E+05   0.1061592E+05
 CELL LNTHS[A]                =    0.2624547E+02   0.2621566E+02   0.2618776E+02
 AVE. CELL LNTHS[A]           =    0.2623901E+02   0.2621820E+02   0.2619259E+02
 CELL ANGLS[deg]              =    0.5288818E+02   0.5286867E+02   0.5282890E+02
 AVE. CELL ANGLS[deg]         =    0.5290794E+02   0.5288324E+02   0.5286625E+02
 LIST UPDATES[steps]          =                             0.00            0.00
 *******************************************************************************


 *******************************************************************************
 ENSEMBLE TYPE                =                                            NPT_F
 STEP NUMBER                  =                                                9
 CONSERVED QNTY               =                                   -0.8813458E+08

                                                   INSTANTANEOUS        AVERAGES
 {E-E0}/E0                    =                    0.3569471E-05   0.1145964E-05
 POTENTIAL ENERGY[K]          =                   -0.8869212E+08  -0.8868407E+08
 KINETIC ENERGY[K]            =                    0.5568068E+06   0.5484506E+06
 TEMPERATURE[K]               =                    0.2972014E+03   0.2927412E+03
 PRESSURE[bar]                =                    0.2554536E+04   0.1291650E+04
 VOLUME[A^3]                  =                    0.1060629E+05   0.1061485E+05
 CELL LNTHS[A]                =    0.2624720E+02   0.2621505E+02   0.2618687E+02
 AVE. CELL LNTHS[A]           =    0.2623992E+02   0.2621785E+02   0.2619195E+02
 CELL ANGLS[deg]              =    0.5288224E+02   0.5286445E+02   0.5281896E+02
 AVE. CELL ANGLS[deg]         =    0.5290509E+02   0.5288115E+02   0.5286100E+02
 LIST UPDATES[steps]          =                             0.00            0.00
 *******************************************************************************


 *******************************************************************************
 ENSEMBLE TYPE                =                                            NPT_F
 STEP NUMBER                  =                                               10
 CONSERVED QNTY               =                                   -0.8813438E+08

                                                   INSTANTANEOUS        AVERAGES
 {E-E0}/E0                    =                    0.1284439E-05   0.1159812E-05
 POTENTIAL ENERGY[K]          =                   -0.8868838E+08  -0.8868450E+08
 KINETIC ENERGY[K]            =                    0.5534545E+06   0.5489510E+06
 TEMPERATURE[K]               =                    0.2954121E+03   0.2930083E+03
 PRESSURE[bar]                =                    0.3380874E+04   0.1500572E+04
 VOLUME[A^3]                  =                    0.1060448E+05   0.1061382E+05
 CELL LNTHS[A]                =    0.2624884E+02   0.2621456E+02   0.2618624E+02
 AVE. CELL LNTHS[A]           =    0.2624081E+02   0.2621752E+02   0.2619138E+02
 CELL ANGLS[deg]              =    0.5287623E+02   0.5286024E+02   0.5280940E+02
 AVE. CELL ANGLS[deg]         =    0.5290220E+02   0.5287906E+02   0.5285584E+02
 LIST UPDATES[steps]          =                             0.00            0.00
 *******************************************************************************


 *******************************************************************************
 ENSEMBLE TYPE                =                                            NPT_F
 STEP NUMBER                  =                                               11
 CONSERVED QNTY               =                                   -0.8813424E+08

                                                   INSTANTANEOUS        AVERAGES
 {E-E0}/E0                    =                    0.3006602E-06   0.1081707E-05
 POTENTIAL ENERGY[K]          =                   -0.8868460E+08  -0.8868451E+08
 KINETIC ENERGY[K]            =                    0.5499950E+06   0.5490459E+06
 TEMPERATURE[K]               =                    0.2935655E+03   0.2930589E+03
 PRESSURE[bar]                =                    0.3965939E+04   0.1724696E+04
 VOLUME[A^3]                  =                    0.1060287E+05   0.1061282E+05
 CELL LNTHS[A]                =    0.2625039E+02   0.2621425E+02   0.2618588E+02
 AVE. CELL LNTHS[A]           =    0.2624168E+02   0.2621722E+02   0.2619088E+02
 CELL ANGLS[deg]              =    0.5287021E+02   0.5285606E+02   0.5280024E+02
 AVE. CELL ANGLS[deg]         =    0.5289929E+02   0.5287697E+02   0.5285078E+02
 LIST UPDATES[steps]          =                             0.00            0.00
 *******************************************************************************


 *******************************************************************************
 ENSEMBLE TYPE                =                                            NPT_F
 STEP NUMBER                  =                                               12
 CONSERVED QNTY               =                                   -0.8813430E+08

                                                   INSTANTANEOUS        AVERAGES
 {E-E0}/E0                    =                    0.3536479E-06   0.1021035E-05
 POTENTIAL ENERGY[K]          =                   -0.8868300E+08  -0.8868438E+08
 KINETIC ENERGY[K]            =                    0.5485105E+06   0.5490013E+06
 TEMPERATURE[K]               =                    0.2927732E+03   0.2930351E+03
 PRESSURE[bar]                =                    0.4126157E+04   0.1924818E+04
 VOLUME[A^3]                  =                    0.1060149E+05   0.1061188E+05
 CELL LNTHS[A]                =    0.2625189E+02   0.2621416E+02   0.2618581E+02
 AVE. CELL LNTHS[A]           =    0.2624253E+02   0.2621697E+02   0.2619046E+02
 CELL ANGLS[deg]              =    0.5286424E+02   0.5285196E+02   0.5279152E+02
 AVE. CELL ANGLS[deg]         =    0.5289637E+02   0.5287488E+02   0.5284584E+02
 LIST UPDATES[steps]          =                             0.00            0.00
 *******************************************************************************


 *******************************************************************************
 ENSEMBLE TYPE                =                                            NPT_F
 STEP NUMBER                  =                                               13
 CONSERVED QNTY               =                                   -0.8813440E+08

                                                   INSTANTANEOUS        AVERAGES
 {E-E0}/E0                    =                    0.1461622E-05   0.1054927E-05
 POTENTIAL ENERGY[K]          =                   -0.8868288E+08  -0.8868427E+08
 KINETIC ENERGY[K]            =                    0.5484512E+06   0.5489590E+06
 TEMPERATURE[K]               =                    0.2927415E+03   0.2930125E+03
 PRESSURE[bar]                =                    0.3954723E+04   0.2080965E+04
 VOLUME[A^3]                  =                    0.1060035E+05   0.1061099E+05
 CELL LNTHS[A]                =    0.2625332E+02   0.2621429E+02   0.2618598E+02
 AVE. CELL LNTHS[A]           =    0.2624336E+02   0.2621676E+02   0.2619011E+02
 CELL ANGLS[deg]              =    0.5285842E+02   0.5284804E+02   0.5278326E+02
 AVE. CELL ANGLS[deg]         =    0.5289345E+02   0.5287282E+02   0.5284103E+02
 LIST UPDATES[steps]          =                             0.00            0.00
 *******************************************************************************


 *******************************************************************************
 ENSEMBLE TYPE                =                                            NPT_F
 STEP NUMBER                  =                                               14
 CONSERVED QNTY               =                                   -0.8813440E+08

                                                   INSTANTANEOUS        AVERAGES
 {E-E0}/E0                    =                    0.1470761E-05   0.1084629E-05
 POTENTIAL ENERGY[K]          =                   -0.8868264E+08  -0.8868415E+08
 KINETIC ENERGY[K]            =                    0.5483672E+06   0.5489167E+06
 TEMPERATURE[K]               =                    0.2926967E+03   0.2929900E+03
 PRESSURE[bar]                =                    0.3701768E+04   0.2196736E+04
 VOLUME[A^3]                  =                    0.1059945E+05   0.1061017E+05
 CELL LNTHS[A]                =    0.2625466E+02   0.2621459E+02   0.2618635E+02
 AVE. CELL LNTHS[A]           =    0.2624417E+02   0.2621661E+02   0.2618984E+02
 CELL ANGLS[deg]              =    0.5285287E+02   0.5284444E+02   0.5277555E+02
 AVE. CELL ANGLS[deg]         =    0.5289055E+02   0.5287079E+02   0.5283635E+02
 LIST UPDATES[steps]          =                             0.00            0.00
 *******************************************************************************


 *******************************************************************************
 ENSEMBLE TYPE                =                                            NPT_F
 STEP NUMBER                  =                                               15
 CONSERVED QNTY               =                                   -0.8813435E+08

                                                   INSTANTANEOUS        AVERAGES
 {E-E0}/E0                    =                    0.8931690E-06   0.1071865E-05
 POTENTIAL ENERGY[K]          =                   -0.8868186E+08  -0.8868400E+08
 KINETIC ENERGY[K]            =                    0.5477806E+06   0.5488410E+06
 TEMPERATURE[K]               =                    0.2923836E+03   0.2929496E+03
 PRESSURE[bar]                =                    0.3570575E+04   0.2288326E+04
 VOLUME[A^3]                  =                    0.1059876E+05   0.1060941E+05
 CELL LNTHS[A]                =    0.2625589E+02   0.2621504E+02   0.2618684E+02
 AVE. CELL LNTHS[A]           =    0.2624495E+02   0.2621650E+02   0.2618964E+02
 CELL ANGLS[deg]              =    0.5284773E+02   0.5284138E+02   0.5276848E+02
 AVE. CELL ANGLS[deg]         =    0.5288770E+02   0.5286883E+02   0.5283183E+02
 LIST UPDATES[steps]          =                             0.00            0.00
 *******************************************************************************


 *******************************************************************************
 ENSEMBLE TYPE                =                                            NPT_F
 STEP NUMBER                  =                                               16
 CONSERVED QNTY               =                                   -0.8813435E+08

                                                   INSTANTANEOUS        AVERAGES
 {E-E0}/E0                    =                    0.9054285E-06   0.1061463E-05
 POTENTIAL ENERGY[K]          =                   -0.8868093E+08  -0.8868381E+08
 KINETIC ENERGY[K]            =                    0.5469751E+06   0.5487244E+06
 TEMPERATURE[K]               =                    0.2919536E+03   0.2928873E+03
 PRESSURE[bar]                =                    0.3624852E+04   0.2371859E+04
 VOLUME[A^3]                  =                    0.1059829E+05   0.1060871E+05
 CELL LNTHS[A]                =    0.2625697E+02   0.2621559E+02   0.2618739E+02
 AVE. CELL LNTHS[A]           =    0.2624570E+02   0.2621645E+02   0.2618950E+02
 CELL ANGLS[deg]              =    0.5284312E+02   0.5283902E+02   0.5276214E+02
 AVE. CELL ANGLS[deg]         =    0.5288491E+02   0.5286697E+02   0.5282747E+02
 LIST UPDATES[steps]          =                             0.00            0.00
 *******************************************************************************


 *******************************************************************************
 ENSEMBLE TYPE                =                                            NPT_F
 STEP NUMBER                  =                                               17
 CONSERVED QNTY               =                                   -0.8813439E+08

                                                   INSTANTANEOUS        AVERAGES
 {E-E0}/E0                    =                    0.1358155E-05   0.1078915E-05
 POTENTIAL ENERGY[K]          =                   -0.8867975E+08  -0.8868357E+08
 KINETIC ENERGY[K]            =                    0.5458634E+06   0.5485561E+06
 TEMPERATURE[K]               =                    0.2913603E+03   0.2927975E+03
 PRESSURE[bar]                =                    0.3843771E+04   0.2458442E+04
 VOLUME[A^3]                  =                    0.1059802E+05   0.1060808E+05
 CELL LNTHS[A]                =    0.2625792E+02   0.2621622E+02   0.2618794E+02
 AVE. CELL LNTHS[A]           =    0.2624642E+02   0.2621643E+02   0.2618941E+02
 CELL ANGLS[deg]              =    0.5283915E+02   0.5283750E+02   0.5275661E+02
 AVE. CELL ANGLS[deg]         =    0.5288222E+02   0.5286524E+02   0.5282331E+02
 LIST UPDATES[steps]          =                             0.00            0.00
 *******************************************************************************


 *******************************************************************************
 ENSEMBLE TYPE                =                                            NPT_F
 STEP NUMBER                  =                                               18
 CONSERVED QNTY               =                                   -0.8813437E+08

                                                   INSTANTANEOUS        AVERAGES
 {E-E0}/E0                    =                    0.1143477E-05   0.1082502E-05
 POTENTIAL ENERGY[K]          =                   -0.8867789E+08  -0.8868325E+08
 KINETIC ENERGY[K]            =                    0.5441220E+06   0.5483097E+06
 TEMPERATURE[K]               =                    0.2904307E+03   0.2926660E+03
 PRESSURE[bar]                =                    0.4164412E+04   0.2553218E+04
 VOLUME[A^3]                  =                    0.1059799E+05   0.1060752E+05
 CELL LNTHS[A]                =    0.2625878E+02   0.2621692E+02   0.2618846E+02
 AVE. CELL LNTHS[A]           =    0.2624711E+02   0.2621646E+02   0.2618936E+02
 CELL ANGLS[deg]              =    0.5283586E+02   0.5283688E+02   0.5275193E+02
 AVE. CELL ANGLS[deg]         =    0.5287964E+02   0.5286366E+02   0.5281934E+02
 LIST UPDATES[steps]          =                             0.00            0.00
 *******************************************************************************


 *******************************************************************************
 ENSEMBLE TYPE                =                                            NPT_F
 STEP NUMBER                  =                                               19
 CONSERVED QNTY               =                                   -0.8813431E+08

                                                   INSTANTANEOUS        AVERAGES
 {E-E0}/E0                    =                    0.4635295E-06   0.1049924E-05
 POTENTIAL ENERGY[K]          =                   -0.8867577E+08  -0.8868286E+08
 KINETIC ENERGY[K]            =                    0.5421287E+06   0.5479844E+06
 TEMPERATURE[K]               =                    0.2893668E+03   0.2924924E+03
 PRESSURE[bar]                =                    0.4475701E+04   0.2654401E+04
 VOLUME[A^3]                  =                    0.1059820E+05   0.1060703E+05
 CELL LNTHS[A]                =    0.2625960E+02   0.2621769E+02   0.2618891E+02
 AVE. CELL LNTHS[A]           =    0.2624777E+02   0.2621652E+02   0.2618933E+02
 CELL ANGLS[deg]              =    0.5283330E+02   0.5283720E+02   0.5274813E+02
 AVE. CELL ANGLS[deg]         =    0.5287721E+02   0.5286227E+02   0.5281559E+02
 LIST UPDATES[steps]          =                             0.00            0.00
 *******************************************************************************


 *******************************************************************************
 ENSEMBLE TYPE                =                                            NPT_F
 STEP NUMBER                  =                                               20
 CONSERVED QNTY               =                                   -0.8813421E+08

                                                   INSTANTANEOUS        AVERAGES
 {E-E0}/E0                    =                    0.6632868E-06   0.1030593E-05
 POTENTIAL ENERGY[K]          =                   -0.8867445E+08  -0.8868244E+08
 KINETIC ENERGY[K]            =                    0.5409681E+06   0.5476336E+06
 TEMPERATURE[K]               =                    0.2887473E+03   0.2923051E+03
 PRESSURE[bar]                =                    0.4625182E+04   0.2752940E+04
 VOLUME[A^3]                  =                    0.1059867E+05   0.1060661E+05
 CELL LNTHS[A]                =    0.2626042E+02   0.2621856E+02   0.2618930E+02
 AVE. CELL LNTHS[A]           =    0.2624840E+02   0.2621663E+02   0.2618933E+02
 CELL ANGLS[deg]              =    0.5283147E+02   0.5283843E+02   0.5274518E+02
 AVE. CELL ANGLS[deg]         =    0.5287492E+02   0.5286108E+02   0.5281207E+02
 LIST UPDATES[steps]          =                             0.00            0.00
 *******************************************************************************


 *******************************************************************************
 ENSEMBLE TYPE                =                                            NPT_F
 STEP NUMBER                  =                                               21
 CONSERVED QNTY               =                                   -0.8813413E+08

                                                   INSTANTANEOUS        AVERAGES
 {E-E0}/E0                    =                    0.1618878E-05   0.1058606E-05
 POTENTIAL ENERGY[K]          =                   -0.8867549E+08  -0.8868211E+08
 KINETIC ENERGY[K]            =                    0.5421197E+06   0.5473710E+06
 TEMPERATURE[K]               =                    0.2893620E+03   0.2921650E+03
 PRESSURE[bar]                =                    0.4493379E+04   0.2835818E+04
 VOLUME[A^3]                  =                    0.1059942E+05   0.1060627E+05
 CELL LNTHS[A]                =    0.2626126E+02   0.2621952E+02   0.2618962E+02
 AVE. CELL LNTHS[A]           =    0.2624901E+02   0.2621676E+02   0.2618935E+02
 CELL ANGLS[deg]              =    0.5283036E+02   0.5284058E+02   0.5274308E+02
 AVE. CELL ANGLS[deg]         =    0.5287280E+02   0.5286010E+02   0.5280879E+02
 LIST UPDATES[steps]          =                             0.00            0.00
 *******************************************************************************


 *******************************************************************************
 ENSEMBLE TYPE                =                                            NPT_F
 STEP NUMBER                  =                                               22
 CONSERVED QNTY               =                                   -0.8813418E+08

                                                   INSTANTANEOUS        AVERAGES
 {E-E0}/E0                    =                    0.1035831E-05   0.1057571E-05
 POTENTIAL ENERGY[K]          =                   -0.8867992E+08  -0.8868201E+08
 KINETIC ENERGY[K]            =                    0.5465118E+06   0.5473320E+06
 TEMPERATURE[K]               =                    0.2917063E+03   0.2921441E+03
 PRESSURE[bar]                =                    0.4026531E+04   0.2889941E+04
 VOLUME[A^3]                  =                    0.1060044E+05   0.1060600E+05
 CELL LNTHS[A]                =    0.2626210E+02   0.2622058E+02   0.2618990E+02
 AVE. CELL LNTHS[A]           =    0.2624961E+02   0.2621694E+02   0.2618937E+02
 CELL ANGLS[deg]              =    0.5282997E+02   0.5284363E+02   0.5274177E+02
 AVE. CELL ANGLS[deg]         =    0.5287085E+02   0.5285935E+02   0.5280574E+02
 LIST UPDATES[steps]          =                             0.00            0.00
 *******************************************************************************


 *******************************************************************************
 ENSEMBLE TYPE                =                                            NPT_F
 STEP NUMBER                  =                                               23
 CONSERVED QNTY               =                                   -0.8813433E+08

                                                   INSTANTANEOUS        AVERAGES
 {E-E0}/E0                    =                    0.6343851E-06   0.1039172E-05
 POTENTIAL ENERGY[K]          =                   -0.8868675E+08  -0.8868221E+08
 KINETIC ENERGY[K]            =                    0.5531953E+06   0.5475869E+06
 TEMPERATURE[K]               =                    0.2952737E+03   0.2922802E+03
 PRESSURE[bar]                =                    0.3309551E+04   0.2908185E+04
 VOLUME[A^3]                  =                    0.1060169E+05   0.1060582E+05
 CELL LNTHS[A]                =    0.2626292E+02   0.2622169E+02   0.2619013E+02
 AVE. CELL LNTHS[A]           =    0.2625018E+02   0.2621714E+02   0.2618940E+02
 CELL ANGLS[deg]              =    0.5283031E+02   0.5284757E+02   0.5274122E+02
 AVE. CELL ANGLS[deg]         =    0.5286909E+02   0.5285884E+02   0.5280294E+02
 LIST UPDATES[steps]          =                             0.00            0.00
 *******************************************************************************


 *******************************************************************************
 ENSEMBLE TYPE                =                                            NPT_F
 STEP NUMBER                  =                                               24
 CONSERVED QNTY               =                                   -0.8813447E+08

                                                   INSTANTANEOUS        AVERAGES
 {E-E0}/E0                    =                    0.2318840E-05   0.1092491E-05
 POTENTIAL ENERGY[K]          =                   -0.8869344E+08  -0.8868268E+08
 KINETIC ENERGY[K]            =                    0.5597424E+06   0.5480934E+06
 TEMPERATURE[K]               =                    0.2987683E+03   0.2925505E+03
 PRESSURE[bar]                =                    0.2533770E+04   0.2892585E+04
 VOLUME[A^3]                  =                    0.1060314E+05   0.1060571E+05
 CELL LNTHS[A]                =    0.2626366E+02   0.2622281E+02   0.2619034E+02
 AVE. CELL LNTHS[A]           =    0.2625075E+02   0.2621738E+02   0.2618944E+02
 CELL ANGLS[deg]              =    0.5283139E+02   0.5285237E+02   0.5274142E+02
 AVE. CELL ANGLS[deg]         =    0.5286752E+02   0.5285857E+02   0.5280037E+02
 LIST UPDATES[steps]          =                             0.00            0.00
 *******************************************************************************


 *******************************************************************************
 ENSEMBLE TYPE                =                                            NPT_F
 STEP NUMBER                  =                                               25
 CONSERVED QNTY               =                                   -0.8813460E+08

                                                   INSTANTANEOUS        AVERAGES
 {E-E0}/E0                    =                    0.3735693E-05   0.1198219E-05
 POTENTIAL ENERGY[K]          =                   -0.8869730E+08  -0.8868327E+08
 KINETIC ENERGY[K]            =                    0.5634808E+06   0.5487089E+06
 TEMPERATURE[K]               =                    0.3007637E+03   0.2928790E+03
 PRESSURE[bar]                =                    0.1888074E+04   0.2852404E+04
 VOLUME[A^3]                  =                    0.1060474E+05   0.1060567E+05
 CELL LNTHS[A]                =    0.2626427E+02   0.2622388E+02   0.2619052E+02
 AVE. CELL LNTHS[A]           =    0.2625129E+02   0.2621764E+02   0.2618949E+02
 CELL ANGLS[deg]              =    0.5283318E+02   0.5285794E+02   0.5274235E+02
 AVE. CELL ANGLS[deg]         =    0.5286614E+02   0.5285854E+02   0.5279805E+02
 LIST UPDATES[steps]          =                             0.00            0.00
 *******************************************************************************


 *******************************************************************************
 ENSEMBLE TYPE                =                                            NPT_F
 STEP NUMBER                  =                                               26
 CONSERVED QNTY               =                                   -0.8813457E+08

                                                   INSTANTANEOUS        AVERAGES
 {E-E0}/E0                    =                    0.3463049E-05   0.1285328E-05
 POTENTIAL ENERGY[K]          =                   -0.8869625E+08  -0.8868377E+08
 KINETIC ENERGY[K]            =                    0.5624664E+06   0.5492380E+06
 TEMPERATURE[K]               =                    0.3002223E+03   0.2931615E+03
 PRESSURE[bar]                =                    0.1526012E+04   0.2801389E+04
 VOLUME[A^3]                  =                    0.1060646E+05   0.1060570E+05
 CELL LNTHS[A]                =    0.2626475E+02   0.2622488E+02   0.2619071E+02
 AVE. CELL LNTHS[A]           =    0.2625180E+02   0.2621792E+02   0.2618953E+02
 CELL ANGLS[deg]              =    0.5283558E+02   0.5286416E+02   0.5274399E+02
 AVE. CELL ANGLS[deg]         =    0.5286497E+02   0.5285876E+02   0.5279597E+02
 LIST UPDATES[steps]          =                             0.00            0.00
 *******************************************************************************


 *******************************************************************************
 ENSEMBLE TYPE                =                                            NPT_F
 STEP NUMBER                  =                                               27
 CONSERVED QNTY               =                                   -0.8813438E+08

                                                   INSTANTANEOUS        AVERAGES
 {E-E0}/E0                    =                    0.1245138E-05   0.1283839E-05
 POTENTIAL ENERGY[K]          =                   -0.8869053E+08  -0.8868402E+08
 KINETIC ENERGY[K]            =                    0.5569584E+06   0.5495240E+06
 TEMPERATURE[K]               =                    0.2972823E+03   0.2933141E+03
 PRESSURE[bar]                =                    0.1473260E+04   0.2752199E+04
 VOLUME[A^3]                  =                    0.1060827E+05   0.1060579E+05
 CELL LNTHS[A]                =    0.2626507E+02   0.2622580E+02   0.2619094E+02
 AVE. CELL LNTHS[A]           =    0.2625230E+02   0.2621821E+02   0.2618959E+02
 CELL ANGLS[deg]              =    0.5283846E+02   0.5287089E+02   0.5274630E+02
 AVE. CELL ANGLS[deg]         =    0.5286399E+02   0.5285921E+02   0.5279413E+02
 LIST UPDATES[steps]          =                             0.00            0.00
 *******************************************************************************


 *******************************************************************************
 ENSEMBLE TYPE                =                                            NPT_F
 STEP NUMBER                  =                                               28
 CONSERVED QNTY               =                                   -0.8813416E+08

                                                   INSTANTANEOUS        AVERAGES
 {E-E0}/E0                    =                    0.1230496E-05   0.1281934E-05
 POTENTIAL ENERGY[K]          =                   -0.8868296E+08  -0.8868398E+08
 KINETIC ENERGY[K]            =                    0.5496224E+06   0.5495275E+06
 TEMPERATURE[K]               =                    0.2933667E+03   0.2933160E+03
 PRESSURE[bar]                =                    0.1576994E+04   0.2710228E+04
 VOLUME[A^3]                  =                    0.1061017E+05   0.1060595E+05
 CELL LNTHS[A]                =    0.2626526E+02   0.2622668E+02   0.2619125E+02
 AVE. CELL LNTHS[A]           =    0.2625276E+02   0.2621851E+02   0.2618965E+02
 CELL ANGLS[deg]              =    0.5284163E+02   0.5287799E+02   0.5274922E+02
 AVE. CELL ANGLS[deg]         =    0.5286319E+02   0.5285988E+02   0.5279253E+02
 LIST UPDATES[steps]          =                             0.00            0.00
 *******************************************************************************


 *******************************************************************************
 ENSEMBLE TYPE                =                                            NPT_F
 STEP NUMBER                  =                                               29
 CONSERVED QNTY               =                                   -0.8813402E+08

                                                   INSTANTANEOUS        AVERAGES
 {E-E0}/E0                    =                    0.2822230E-05   0.1335048E-05
 POTENTIAL ENERGY[K]          =                   -0.8867693E+08  -0.8868374E+08
 KINETIC ENERGY[K]            =                    0.5437450E+06   0.5493281E+06
 TEMPERATURE[K]               =                    0.2902295E+03   0.2932095E+03
 PRESSURE[bar]                =                    0.1635622E+04   0.2673172E+04
 VOLUME[A^3]                  =                    0.1061216E+05   0.1060616E+05
 CELL LNTHS[A]                =    0.2626532E+02   0.2622753E+02   0.2619170E+02
 AVE. CELL LNTHS[A]           =    0.2625319E+02   0.2621882E+02   0.2618972E+02
 CELL ANGLS[deg]              =    0.5284495E+02   0.5288536E+02   0.5275268E+02
 AVE. CELL ANGLS[deg]         =    0.5286256E+02   0.5286076E+02   0.5279115E+02
 LIST UPDATES[steps]          =                             0.00            0.00
 *******************************************************************************


 *******************************************************************************
 ENSEMBLE TYPE                =                                            NPT_F
 STEP NUMBER                  =                                               30
 CONSERVED QNTY               =                                   -0.8813404E+08

                                                   INSTANTANEOUS        AVERAGES
 {E-E0}/E0                    =                    0.2558751E-05   0.1375838E-05
 POTENTIAL ENERGY[K]          =                   -0.8867468E+08  -0.8868343E+08
 KINETIC ENERGY[K]            =                    0.5414839E+06   0.5490666E+06
 TEMPERATURE[K]               =                    0.2890227E+03   0.2930700E+03
 PRESSURE[bar]                =                    0.1498610E+04   0.2634020E+04
 VOLUME[A^3]                  =                    0.1061426E+05   0.1060643E+05
 CELL LNTHS[A]                =    0.2626528E+02   0.2622836E+02   0.2619235E+02
 AVE. CELL LNTHS[A]           =    0.2625359E+02   0.2621914E+02   0.2618980E+02
 CELL ANGLS[deg]              =    0.5284830E+02   0.5289289E+02   0.5275662E+02
 AVE. CELL ANGLS[deg]         =    0.5286208E+02   0.5286183E+02   0.5279000E+02
 LIST UPDATES[steps]          =                             0.00            0.00
 *******************************************************************************


 *******************************************************************************
 ENSEMBLE TYPE                =                                            NPT_F
 STEP NUMBER                  =                                               31
 CONSERVED QNTY               =                                   -0.8813431E+08

                                                   INSTANTANEOUS        AVERAGES
 {E-E0}/E0                    =                    0.4332591E-06   0.1345432E-05
 POTENTIAL ENERGY[K]          =                   -0.8867586E+08  -0.8868319E+08
 KINETIC ENERGY[K]            =                    0.5424074E+06   0.5488518E+06
 TEMPERATURE[K]               =                    0.2895156E+03   0.2929553E+03
 PRESSURE[bar]                =                    0.1197112E+04   0.2587668E+04
 VOLUME[A^3]                  =                    0.1061644E+05   0.1060676E+05
 CELL LNTHS[A]                =    0.2626511E+02   0.2622918E+02   0.2619325E+02
 AVE. CELL LNTHS[A]           =    0.2625397E+02   0.2621947E+02   0.2618992E+02
 CELL ANGLS[deg]              =    0.5285164E+02   0.5290051E+02   0.5276099E+02
 AVE. CELL ANGLS[deg]         =    0.5286175E+02   0.5286308E+02   0.5278907E+02
 LIST UPDATES[steps]          =                             0.00            0.00
 *******************************************************************************


 *******************************************************************************
 ENSEMBLE TYPE                =                                            NPT_F
 STEP NUMBER                  =                                               32
 CONSERVED QNTY               =                                   -0.8813453E+08

                                                   INSTANTANEOUS        AVERAGES
 {E-E0}/E0                    =                    0.2961932E-05   0.1395948E-05
 POTENTIAL ENERGY[K]          =                   -0.8867691E+08  -0.8868299E+08
 KINETIC ENERGY[K]            =                    0.5432346E+06   0.5486763E+06
 TEMPERATURE[K]               =                    0.2899571E+03   0.2928616E+03
 PRESSURE[bar]                =                    0.9276617E+03   0.2535793E+04
 VOLUME[A^3]                  =                    0.1061870E+05   0.1060713E+05
 CELL LNTHS[A]                =    0.2626480E+02   0.2622994E+02   0.2619443E+02
 AVE. CELL LNTHS[A]           =    0.2625430E+02   0.2621979E+02   0.2619006E+02
 CELL ANGLS[deg]              =    0.5285496E+02   0.5290811E+02   0.5276575E+02
 AVE. CELL ANGLS[deg]         =    0.5286153E+02   0.5286448E+02   0.5278834E+02
 LIST UPDATES[steps]          =                             0.00            0.00
 *******************************************************************************


 *******************************************************************************
 ENSEMBLE TYPE                =                                            NPT_F
 STEP NUMBER                  =                                               33
 CONSERVED QNTY               =                                   -0.8813441E+08

                                                   INSTANTANEOUS        AVERAGES
 {E-E0}/E0                    =                    0.1620891E-05   0.1402764E-05
 POTENTIAL ENERGY[K]          =                   -0.8867500E+08  -0.8868275E+08
 KINETIC ENERGY[K]            =                    0.5414400E+06   0.5484570E+06
 TEMPERATURE[K]               =                    0.2889992E+03   0.2927446E+03
 PRESSURE[bar]                =                    0.8685885E+03   0.2485272E+04
 VOLUME[A^3]                  =                    0.1062102E+05   0.1060755E+05
 CELL LNTHS[A]                =    0.2626435E+02   0.2623062E+02   0.2619590E+02
 AVE. CELL LNTHS[A]           =    0.2625461E+02   0.2622012E+02   0.2619023E+02
 CELL ANGLS[deg]              =    0.5285829E+02   0.5291559E+02   0.5277090E+02
 AVE. CELL ANGLS[deg]         =    0.5286144E+02   0.5286603E+02   0.5278781E+02
 LIST UPDATES[steps]          =                             0.00            0.00
 *******************************************************************************


 *******************************************************************************
 ENSEMBLE TYPE                =                                            NPT_F
 STEP NUMBER                  =                                               34
 CONSERVED QNTY               =                                   -0.8813419E+08

                                                   INSTANTANEOUS        AVERAGES
 {E-E0}/E0                    =                    0.8986144E-06   0.1387936E-05
 POTENTIAL ENERGY[K]          =                   -0.8867180E+08  -0.8868243E+08
 KINETIC ENERGY[K]            =                    0.5384631E+06   0.5481630E+06
 TEMPERATURE[K]               =                    0.2874103E+03   0.2925877E+03
 PRESSURE[bar]                =                    0.9046540E+03   0.2438783E+04
 VOLUME[A^3]                  =                    0.1062339E+05   0.1060802E+05
 CELL LNTHS[A]                =    0.2626377E+02   0.2623122E+02   0.2619766E+02
 AVE. CELL LNTHS[A]           =    0.2625488E+02   0.2622045E+02   0.2619045E+02
 CELL ANGLS[deg]              =    0.5286165E+02   0.5292287E+02   0.5277644E+02
 AVE. CELL ANGLS[deg]         =    0.5286144E+02   0.5286771E+02   0.5278747E+02
 LIST UPDATES[steps]          =                             0.00            0.00
 *******************************************************************************


 *******************************************************************************
 ENSEMBLE TYPE                =                                            NPT_F
 STEP NUMBER                  =                                               35
 CONSERVED QNTY               =                                   -0.8813410E+08

                                                   INSTANTANEOUS        AVERAGES
 {E-E0}/E0                    =                    0.1943854E-05   0.1403820E-05
 POTENTIAL ENERGY[K]          =                   -0.8867059E+08  -0.8868209E+08
 KINETIC ENERGY[K]            =                    0.5373275E+06   0.5478535E+06
 TEMPERATURE[K]               =                    0.2868041E+03   0.2924225E+03
 PRESSURE[bar]                =                    0.7536124E+03   0.2390635E+04
 VOLUME[A^3]                  =                    0.1062582E+05   0.1060853E+05
 CELL LNTHS[A]                =    0.2626309E+02   0.2623173E+02   0.2619970E+02
 AVE. CELL LNTHS[A]           =    0.2625511E+02   0.2622077E+02   0.2619072E+02
 CELL ANGLS[deg]              =    0.5286510E+02   0.5292984E+02   0.5278242E+02
 AVE. CELL ANGLS[deg]         =    0.5286155E+02   0.5286948E+02   0.5278733E+02
 LIST UPDATES[steps]          =                             0.00            0.00
 *******************************************************************************


 *******************************************************************************
 ENSEMBLE TYPE                =                                            NPT_F
 STEP NUMBER                  =                                               36
 CONSERVED QNTY               =                                   -0.8813414E+08

                                                   INSTANTANEOUS        AVERAGES
 {E-E0}/E0                    =                    0.1414394E-05   0.1404114E-05
 POTENTIAL ENERGY[K]          =                   -0.8867273E+08  -0.8868183E+08
 KINETIC ENERGY[K]            =                    0.5394151E+06   0.5476191E+06
 TEMPERATURE[K]               =                    0.2879184E+03   0.2922973E+03
 PRESSURE[bar]                =                    0.2511087E+03   0.2331204E+04
 VOLUME[A^3]                  =                    0.1062830E+05   0.1060907E+05
 CELL LNTHS[A]                =    0.2626232E+02   0.2623214E+02   0.2620197E+02
 AVE. CELL LNTHS[A]           =    0.2625531E+02   0.2622109E+02   0.2619103E+02
 CELL ANGLS[deg]              =    0.5286870E+02   0.5293646E+02   0.5278889E+02
 AVE. CELL ANGLS[deg]         =    0.5286175E+02   0.5287134E+02   0.5278737E+02
 LIST UPDATES[steps]          =                             0.00            0.00
 *******************************************************************************


 *******************************************************************************
 ENSEMBLE TYPE                =                                            NPT_F
 STEP NUMBER                  =                                               37
 CONSERVED QNTY               =                                   -0.8813431E+08

                                                   INSTANTANEOUS        AVERAGES
 {E-E0}/E0                    =                    0.4403505E-06   0.1378066E-05
 POTENTIAL ENERGY[K]          =                   -0.8867731E+08  -0.8868171E+08
 KINETIC ENERGY[K]            =                    0.5438363E+06   0.5475168E+06
 TEMPERATURE[K]               =                    0.2902782E+03   0.2922428E+03
 PRESSURE[bar]                =                   -0.6280384E+03   0.2251224E+04
 VOLUME[A^3]                  =                    0.1063080E+05   0.1060966E+05
 CELL LNTHS[A]                =    0.2626144E+02   0.2623243E+02   0.2620440E+02
 AVE. CELL LNTHS[A]           =    0.2625548E+02   0.2622139E+02   0.2619139E+02
 CELL ANGLS[deg]              =    0.5287254E+02   0.5294274E+02   0.5279592E+02
 AVE. CELL ANGLS[deg]         =    0.5286204E+02   0.5287327E+02   0.5278760E+02
 LIST UPDATES[steps]          =                             0.00            0.00
 *******************************************************************************


 *******************************************************************************
 ENSEMBLE TYPE                =                                            NPT_F
 STEP NUMBER                  =                                               38
 CONSERVED QNTY               =                                   -0.8813449E+08

                                                   INSTANTANEOUS        AVERAGES
 {E-E0}/E0                    =                    0.2547141E-05   0.1408831E-05
 POTENTIAL ENERGY[K]          =                   -0.8868163E+08  -0.8868171E+08
 KINETIC ENERGY[K]            =                    0.5479849E+06   0.5475291E+06
 TEMPERATURE[K]               =                    0.2924926E+03   0.2922493E+03
 PRESSURE[bar]                =                   -0.1685067E+04   0.2147638E+04
 VOLUME[A^3]                  =                    0.1063326E+05   0.1061028E+05
 CELL LNTHS[A]                =    0.2626043E+02   0.2623253E+02   0.2620688E+02
 AVE. CELL LNTHS[A]           =    0.2625561E+02   0.2622168E+02   0.2619180E+02
 CELL ANGLS[deg]              =    0.5287674E+02   0.5294876E+02   0.5280358E+02
 AVE. CELL ANGLS[deg]         =    0.5286242E+02   0.5287526E+02   0.5278803E+02
 LIST UPDATES[steps]          =                             0.00            0.00
 *******************************************************************************


 *******************************************************************************
 ENSEMBLE TYPE                =                                            NPT_F
 STEP NUMBER                  =                                               39
 CONSERVED QNTY               =                                   -0.8813453E+08

                                                   INSTANTANEOUS        AVERAGES
 {E-E0}/E0                    =                    0.2989419E-05   0.1449359E-05
 POTENTIAL ENERGY[K]          =                   -0.8868281E+08  -0.8868174E+08
 KINETIC ENERGY[K]            =                    0.5491469E+06   0.5475706E+06
 TEMPERATURE[K]               =                    0.2931128E+03   0.2922715E+03
 PRESSURE[bar]                =                   -0.2647114E+04   0.2024695E+04
 VOLUME[A^3]                  =                    0.1063563E+05   0.1061093E+05
 CELL LNTHS[A]                =    0.2625923E+02   0.2623238E+02   0.2620930E+02
 AVE. CELL LNTHS[A]           =    0.2625570E+02   0.2622196E+02   0.2619225E+02
 CELL ANGLS[deg]              =    0.5288143E+02   0.5295466E+02   0.5281192E+02
 AVE. CELL ANGLS[deg]         =    0.5286291E+02   0.5287729E+02   0.5278864E+02
 LIST UPDATES[steps]          =                             0.00            0.00
 *******************************************************************************


 *******************************************************************************
 ENSEMBLE TYPE                =                                            NPT_F
 STEP NUMBER                  =                                               40
 CONSERVED QNTY               =                                   -0.8813439E+08

                                                   INSTANTANEOUS        AVERAGES
 {E-E0}/E0                    =                    0.1400566E-05   0.1448139E-05
 POTENTIAL ENERGY[K]          =                   -0.8868016E+08  -0.8868170E+08
 KINETIC ENERGY[K]            =                    0.5466564E+06   0.5475478E+06
 TEMPERATURE[K]               =                    0.2917835E+03   0.2922593E+03
 PRESSURE[bar]                =                   -0.3323191E+04   0.1890998E+04
 VOLUME[A^3]                  =                    0.1063785E+05   0.1061161E+05
 CELL LNTHS[A]                =    0.2625777E+02   0.2623191E+02   0.2621157E+02
 AVE. CELL LNTHS[A]           =    0.2625575E+02   0.2622221E+02   0.2619273E+02
 CELL ANGLS[deg]              =    0.5288671E+02   0.5296059E+02   0.5282099E+02
 AVE. CELL ANGLS[deg]         =    0.5286351E+02   0.5287938E+02   0.5278945E+02
 LIST UPDATES[steps]          =                             0.00            0.00
 *******************************************************************************


 *******************************************************************************
 ENSEMBLE TYPE                =                                            NPT_F
 STEP NUMBER                  =                                               41
 CONSERVED QNTY               =                                   -0.8813419E+08

                                                   INSTANTANEOUS        AVERAGES
 {E-E0}/E0                    =                    0.9344497E-06   0.1435610E-05
 POTENTIAL ENERGY[K]          =                   -0.8867572E+08  -0.8868155E+08
 KINETIC ENERGY[K]            =                    0.5424431E+06   0.5474233E+06
 TEMPERATURE[K]               =                    0.2895346E+03   0.2921928E+03
 PRESSURE[bar]                =                   -0.3730363E+04   0.1753892E+04
 VOLUME[A^3]                  =                    0.1063986E+05   0.1061229E+05
 CELL LNTHS[A]                =    0.2625603E+02   0.2623107E+02   0.2621362E+02
 AVE. CELL LNTHS[A]           =    0.2625576E+02   0.2622242E+02   0.2619324E+02
 CELL ANGLS[deg]              =    0.5289263E+02   0.5296668E+02   0.5283082E+02
 AVE. CELL ANGLS[deg]         =    0.5286422E+02   0.5288150E+02   0.5279046E+02
 LIST UPDATES[steps]          =                             0.00            0.00
 *******************************************************************************


 *******************************************************************************
 ENSEMBLE TYPE                =                                            NPT_F
 STEP NUMBER                  =                                               42
 CONSERVED QNTY               =                                   -0.8813409E+08

                                                   INSTANTANEOUS        AVERAGES
 {E-E0}/E0                    =                    0.2007406E-05   0.1449224E-05
 POTENTIAL ENERGY[K]          =                   -0.8867256E+08  -0.8868134E+08
 KINETIC ENERGY[K]            =                    0.5393960E+06   0.5472321E+06
 TEMPERATURE[K]               =                    0.2879082E+03   0.2920908E+03
 PRESSURE[bar]                =                   -0.4003516E+04   0.1616811E+04
 VOLUME[A^3]                  =                    0.1064167E+05   0.1061299E+05
 CELL LNTHS[A]                =    0.2625398E+02   0.2622985E+02   0.2621540E+02
 AVE. CELL LNTHS[A]           =    0.2625572E+02   0.2622260E+02   0.2619377E+02
 CELL ANGLS[deg]              =    0.5289921E+02   0.5297304E+02   0.5284145E+02
 AVE. CELL ANGLS[deg]         =    0.5286505E+02   0.5288368E+02   0.5279167E+02
 LIST UPDATES[steps]          =                             0.00            0.00
 *******************************************************************************


 *******************************************************************************
 ENSEMBLE TYPE                =                                            NPT_F
 STEP NUMBER                  =                                               43
 CONSERVED QNTY               =                                   -0.8813419E+08

                                                   INSTANTANEOUS        AVERAGES
 {E-E0}/E0                    =                    0.8416782E-06   0.1435095E-05
 POTENTIAL ENERGY[K]          =                   -0.8867208E+08  -0.8868112E+08
 KINETIC ENERGY[K]            =                    0.5388326E+06   0.5470368E+06
 TEMPERATURE[K]               =                    0.2876075E+03   0.2919865E+03
 PRESSURE[bar]                =                   -0.4237987E+04   0.1480653E+04
 VOLUME[A^3]                  =                    0.1064323E+05   0.1061370E+05
 CELL LNTHS[A]                =    0.2625161E+02   0.2622824E+02   0.2621684E+02
 AVE. CELL LNTHS[A]           =    0.2625562E+02   0.2622273E+02   0.2619430E+02
 CELL ANGLS[deg]              =    0.5290647E+02   0.5297973E+02   0.5285286E+02
 AVE. CELL ANGLS[deg]         =    0.5286601E+02   0.5288592E+02   0.5279309E+02
 LIST UPDATES[steps]          =                             0.00            0.00
 *******************************************************************************


 *******************************************************************************
 ENSEMBLE TYPE                =                                            NPT_F
 STEP NUMBER                  =                                               44
 CONSERVED QNTY               =                                   -0.8813431E+08

                                                   INSTANTANEOUS        AVERAGES
 {E-E0}/E0                    =                    0.4125415E-06   0.1411855E-05
 POTENTIAL ENERGY[K]          =                   -0.8867289E+08  -0.8868093E+08
 KINETIC ENERGY[K]            =                    0.5395570E+06   0.5468668E+06
 TEMPERATURE[K]               =                    0.2879941E+03   0.2918958E+03
 PRESSURE[bar]                =                   -0.4347697E+04   0.1348190E+04
 VOLUME[A^3]                  =                    0.1064454E+05   0.1061440E+05
 CELL LNTHS[A]                =    0.2624893E+02   0.2622625E+02   0.2621791E+02
 AVE. CELL LNTHS[A]           =    0.2625547E+02   0.2622281E+02   0.2619484E+02
 CELL ANGLS[deg]              =    0.5291440E+02   0.5298683E+02   0.5286502E+02
 AVE. CELL ANGLS[deg]         =    0.5286711E+02   0.5288821E+02   0.5279473E+02
 LIST UPDATES[steps]          =                             0.00            0.00
 *******************************************************************************


 *******************************************************************************
 ENSEMBLE TYPE                =                                            NPT_F
 STEP NUMBER                  =                                               45
 CONSERVED QNTY               =                                   -0.8813424E+08

                                                   INSTANTANEOUS        AVERAGES
 {E-E0}/E0                    =                    0.3568898E-06   0.1388412E-05
 POTENTIAL ENERGY[K]          =                   -0.8867338E+08  -0.8868077E+08
 KINETIC ENERGY[K]            =                    0.5401470E+06   0.5467175E+06
 TEMPERATURE[K]               =                    0.2883091E+03   0.2918161E+03
 PRESSURE[bar]                =                   -0.4270376E+04   0.1223333E+04
 VOLUME[A^3]                  =                    0.1064560E+05   0.1061509E+05
 CELL LNTHS[A]                =    0.2624595E+02   0.2622388E+02   0.2621856E+02
 AVE. CELL LNTHS[A]           =    0.2625526E+02   0.2622284E+02   0.2619537E+02
 CELL ANGLS[deg]              =    0.5292305E+02   0.5299437E+02   0.5287789E+02
 AVE. CELL ANGLS[deg]         =    0.5286836E+02   0.5289057E+02   0.5279658E+02
 LIST UPDATES[steps]          =                             0.00            0.00
 *******************************************************************************


 *******************************************************************************
 ENSEMBLE TYPE                =                                            NPT_F
 STEP NUMBER                  =                                               46
 CONSERVED QNTY               =                                   -0.8813410E+08

                                                   INSTANTANEOUS        AVERAGES
 {E-E0}/E0                    =                    0.1886339E-05   0.1399236E-05
 POTENTIAL ENERGY[K]          =                   -0.8867429E+08  -0.8868062E+08
 KINETIC ENERGY[K]            =                    0.5412206E+06   0.5465980E+06
 TEMPERATURE[K]               =                    0.2888821E+03   0.2917523E+03
 PRESSURE[bar]                =                   -0.4075316E+04   0.1108145E+04
 VOLUME[A^3]                  =                    0.1064641E+05   0.1061577E+05
 CELL LNTHS[A]                =    0.2624269E+02   0.2622115E+02   0.2621876E+02
 AVE. CELL LNTHS[A]           =    0.2625499E+02   0.2622280E+02   0.2619588E+02
 CELL ANGLS[deg]              =    0.5293242E+02   0.5300238E+02   0.5289140E+02
 AVE. CELL ANGLS[deg]         =    0.5286975E+02   0.5289300E+02   0.5279864E+02
 LIST UPDATES[steps]          =                             0.00            0.00
 *******************************************************************************


 *******************************************************************************
 ENSEMBLE TYPE                =                                            NPT_F
 STEP NUMBER                  =                                               47
 CONSERVED QNTY               =                                   -0.8813410E+08

                                                   INSTANTANEOUS        AVERAGES
 {E-E0}/E0                    =                    0.1910288E-05   0.1410110E-05
 POTENTIAL ENERGY[K]          =                   -0.8867730E+08  -0.8868055E+08
 KINETIC ENERGY[K]            =                    0.5442427E+06   0.5465479E+06
 TEMPERATURE[K]               =                    0.2904952E+03   0.2917256E+03
 PRESSURE[bar]                =                   -0.3930044E+04   0.1000950E+04
 VOLUME[A^3]                  =                    0.1064697E+05   0.1061644E+05
 CELL LNTHS[A]                =    0.2623918E+02   0.2621809E+02   0.2621851E+02
 AVE. CELL LNTHS[A]           =    0.2625465E+02   0.2622270E+02   0.2619636E+02
 CELL ANGLS[deg]              =    0.5294251E+02   0.5301086E+02   0.5290549E+02
 AVE. CELL ANGLS[deg]         =    0.5287130E+02   0.5289551E+02   0.5280091E+02
 LIST UPDATES[steps]          =                             0.00            0.00
 *******************************************************************************


 *******************************************************************************
 ENSEMBLE TYPE                =                                            NPT_F
 STEP NUMBER                  =                                               48
 CONSERVED QNTY               =                                   -0.8813424E+08

                                                   INSTANTANEOUS        AVERAGES
 {E-E0}/E0                    =                    0.2842856E-06   0.1386655E-05
 POTENTIAL ENERGY[K]          =                   -0.8868224E+08  -0.8868059E+08
 KINETIC ENERGY[K]            =                    0.5490520E+06   0.5466000E+06
 TEMPERATURE[K]               =                    0.2930622E+03   0.2917534E+03
 PRESSURE[bar]                =                   -0.3900529E+04   0.8988355E+03
 VOLUME[A^3]                  =                    0.1064730E+05   0.1061708E+05
 CELL LNTHS[A]                =    0.2623541E+02   0.2621473E+02   0.2621783E+02
 AVE. CELL LNTHS[A]           =    0.2625425E+02   0.2622253E+02   0.2619680E+02
 CELL ANGLS[deg]              =    0.5295331E+02   0.5301976E+02   0.5292011E+02
 AVE. CELL ANGLS[deg]         =    0.5287301E+02   0.5289810E+02   0.5280339E+02
 LIST UPDATES[steps]          =                             0.00            0.00
 *******************************************************************************


 *******************************************************************************
 ENSEMBLE TYPE                =                                            NPT_F
 STEP NUMBER                  =                                               49
 CONSERVED QNTY               =                                   -0.8813439E+08

                                                   INSTANTANEOUS        AVERAGES
 {E-E0}/E0                    =                    0.1362670E-05   0.1386166E-05
 POTENTIAL ENERGY[K]          =                   -0.8868693E+08  -0.8868072E+08
 KINETIC ENERGY[K]            =                    0.5535913E+06   0.5467427E+06
 TEMPERATURE[K]               =                    0.2954851E+03   0.2918296E+03
 PRESSURE[bar]                =                   -0.3902694E+04   0.8008451E+03
 VOLUME[A^3]                  =                    0.1064740E+05   0.1061770E+05
 CELL LNTHS[A]                =    0.2623137E+02   0.2621108E+02   0.2621676E+02
 AVE. CELL LNTHS[A]           =    0.2625378E+02   0.2622230E+02   0.2619721E+02
 CELL ANGLS[deg]              =    0.5296477E+02   0.5302903E+02   0.5293526E+02
 AVE. CELL ANGLS[deg]         =    0.5287488E+02   0.5290077E+02   0.5280609E+02
 LIST UPDATES[steps]          =                             0.00            0.00
 *******************************************************************************


 *******************************************************************************
 ENSEMBLE TYPE                =                                            NPT_F
 STEP NUMBER                  =                                               50
 CONSERVED QNTY               =                                   -0.8813438E+08

                                                   INSTANTANEOUS        AVERAGES
 {E-E0}/E0                    =                    0.1278078E-05   0.1384004E-05
 POTENTIAL ENERGY[K]          =                   -0.8868924E+08  -0.8868089E+08
 KINETIC ENERGY[K]            =                    0.5558917E+06   0.5469257E+06
 TEMPERATURE[K]               =                    0.2967130E+03   0.2919272E+03
 PRESSURE[bar]                =                   -0.3820414E+04   0.7084199E+03
 VOLUME[A^3]                  =                    0.1064727E+05   0.1061829E+05
 CELL LNTHS[A]                =    0.2622707E+02   0.2620715E+02   0.2621532E+02
 AVE. CELL LNTHS[A]           =    0.2625325E+02   0.2622200E+02   0.2619757E+02
 CELL ANGLS[deg]              =    0.5297680E+02   0.5303857E+02   0.5295091E+02
 AVE. CELL ANGLS[deg]         =    0.5287692E+02   0.5290353E+02   0.5280898E+02
 LIST UPDATES[steps]          =                             0.00            0.00
 *******************************************************************************


 *******************************************************************************
 ENSEMBLE TYPE                =                                            NPT_F
 STEP NUMBER                  =                                               51
 CONSERVED QNTY               =                                   -0.8813426E+08

                                                   INSTANTANEOUS        AVERAGES
 {E-E0}/E0                    =                    0.1590417E-06   0.1359985E-05
 POTENTIAL ENERGY[K]          =                   -0.8868928E+08  -0.8868105E+08
[...]
 CELL LNTHS[A]                =    0.2618494E+02   0.2622480E+02   0.2625487E+02
 AVE. CELL LNTHS[A]           =    0.2620226E+02   0.2619851E+02   0.2620066E+02
 CELL ANGLS[deg]              =    0.5291851E+02   0.5297776E+02   0.5301927E+02
 AVE. CELL ANGLS[deg]         =    0.5300686E+02   0.5300702E+02   0.5300644E+02
 LIST UPDATES[steps]          =                            64.00           83.27
 *******************************************************************************


 *******************************************************************************
 ENSEMBLE TYPE                =                                            NPT_F
 STEP NUMBER                  =                                             1988
 CONSERVED QNTY               =                                   -0.8813420E+08

                                                   INSTANTANEOUS        AVERAGES
 {E-E0}/E0                    =                    0.7837838E-06   0.3501275E-05
 POTENTIAL ENERGY[K]          =                   -0.8867455E+08  -0.8866651E+08
 KINETIC ENERGY[K]            =                    0.5326209E+06   0.5593110E+06
 TEMPERATURE[K]               =                    0.2842919E+03   0.2985380E+03
 PRESSURE[bar]                =                   -0.3616247E+04   0.1076804E+02
 VOLUME[A^3]                  =                    0.1064693E+05   0.1063306E+05
 CELL LNTHS[A]                =    0.2617837E+02   0.2622300E+02   0.2625075E+02
 AVE. CELL LNTHS[A]           =    0.2620225E+02   0.2619852E+02   0.2620068E+02
 CELL ANGLS[deg]              =    0.5292763E+02   0.5299339E+02   0.5303194E+02
 AVE. CELL ANGLS[deg]         =    0.5300682E+02   0.5300701E+02   0.5300645E+02
 LIST UPDATES[steps]          =                            64.00           83.27
 *******************************************************************************


 *******************************************************************************
 ENSEMBLE TYPE                =                                            NPT_F
 STEP NUMBER                  =                                             1989
 CONSERVED QNTY               =                                   -0.8813402E+08

                                                   INSTANTANEOUS        AVERAGES
 {E-E0}/E0                    =                    0.2789712E-05   0.3500917E-05
 POTENTIAL ENERGY[K]          =                   -0.8867144E+08  -0.8866651E+08
 KINETIC ENERGY[K]            =                    0.5297689E+06   0.5592961E+06
 TEMPERATURE[K]               =                    0.2827697E+03   0.2985301E+03
 PRESSURE[bar]                =                   -0.2674895E+04   0.9417781E+01
 VOLUME[A^3]                  =                    0.1064546E+05   0.1063307E+05
 CELL LNTHS[A]                =    0.2617181E+02   0.2622114E+02   0.2624642E+02
 AVE. CELL LNTHS[A]           =    0.2620223E+02   0.2619853E+02   0.2620070E+02
 CELL ANGLS[deg]              =    0.5293639E+02   0.5300871E+02   0.5304423E+02
 AVE. CELL ANGLS[deg]         =    0.5300679E+02   0.5300701E+02   0.5300647E+02
 LIST UPDATES[steps]          =                            64.00           83.27
 *******************************************************************************


 *******************************************************************************
 ENSEMBLE TYPE                =                                            NPT_F
 STEP NUMBER                  =                                             1990
 CONSERVED QNTY               =                                   -0.8813394E+08

                                                   INSTANTANEOUS        AVERAGES
 {E-E0}/E0                    =                    0.3778980E-05   0.3501057E-05
 POTENTIAL ENERGY[K]          =                   -0.8867187E+08  -0.8866651E+08
 KINETIC ENERGY[K]            =                    0.5303760E+06   0.5592816E+06
 TEMPERATURE[K]               =                    0.2830937E+03   0.2985223E+03
 PRESSURE[bar]                =                   -0.1798480E+04   0.8509289E+01
 VOLUME[A^3]                  =                    0.1064382E+05   0.1063307E+05
 CELL LNTHS[A]                =    0.2616534E+02   0.2621926E+02   0.2624191E+02
 AVE. CELL LNTHS[A]           =    0.2620222E+02   0.2619854E+02   0.2620073E+02
 CELL ANGLS[deg]              =    0.5294480E+02   0.5302364E+02   0.5305617E+02
 AVE. CELL ANGLS[deg]         =    0.5300676E+02   0.5300702E+02   0.5300649E+02
 LIST UPDATES[steps]          =                            64.00           83.27
 *******************************************************************************


 *******************************************************************************
 ENSEMBLE TYPE                =                                            NPT_F
 STEP NUMBER                  =                                             1991
 CONSERVED QNTY               =                                   -0.8813407E+08

                                                   INSTANTANEOUS        AVERAGES
 {E-E0}/E0                    =                    0.2246854E-05   0.3500427E-05
 POTENTIAL ENERGY[K]          =                   -0.8867714E+08  -0.8866652E+08
 KINETIC ENERGY[K]            =                    0.5356258E+06   0.5592697E+06
 TEMPERATURE[K]               =                    0.2858958E+03   0.2985160E+03
 PRESSURE[bar]                =                   -0.1224277E+04   0.7890110E+01
 VOLUME[A^3]                  =                    0.1064207E+05   0.1063308E+05
 CELL LNTHS[A]                =    0.2615903E+02   0.2621737E+02   0.2623726E+02
 AVE. CELL LNTHS[A]           =    0.2620219E+02   0.2619855E+02   0.2620074E+02
 CELL ANGLS[deg]              =    0.5295294E+02   0.5303812E+02   0.5306777E+02
 AVE. CELL ANGLS[deg]         =    0.5300673E+02   0.5300703E+02   0.5300652E+02
 LIST UPDATES[steps]          =                            64.00           83.27
 *******************************************************************************


 *******************************************************************************
 ENSEMBLE TYPE                =                                            NPT_F
 STEP NUMBER                  =                                             1992
 CONSERVED QNTY               =                                   -0.8813442E+08

                                                   INSTANTANEOUS        AVERAGES
 {E-E0}/E0                    =                    0.1704703E-05   0.3499525E-05
 POTENTIAL ENERGY[K]          =                   -0.8868518E+08  -0.8866653E+08
 KINETIC ENERGY[K]            =                    0.5434307E+06   0.5592618E+06
 TEMPERATURE[K]               =                    0.2900618E+03   0.2985117E+03
 PRESSURE[bar]                =                   -0.9640735E+03   0.7402176E+01
 VOLUME[A^3]                  =                    0.1064026E+05   0.1063308E+05
 CELL LNTHS[A]                =    0.2615292E+02   0.2621546E+02   0.2623249E+02
 AVE. CELL LNTHS[A]           =    0.2620217E+02   0.2619856E+02   0.2620076E+02
 CELL ANGLS[deg]              =    0.5296087E+02   0.5305209E+02   0.5307909E+02
 AVE. CELL ANGLS[deg]         =    0.5300671E+02   0.5300706E+02   0.5300656E+02
 LIST UPDATES[steps]          =                            64.00           83.27
 *******************************************************************************


 *******************************************************************************
 ENSEMBLE TYPE                =                                            NPT_F
 STEP NUMBER                  =                                             1993
 CONSERVED QNTY               =                                   -0.8813471E+08

                                                   INSTANTANEOUS        AVERAGES
 {E-E0}/E0                    =                    0.4988702E-05   0.3500273E-05
 POTENTIAL ENERGY[K]          =                   -0.8869092E+08  -0.8866654E+08
 KINETIC ENERGY[K]            =                    0.5489873E+06   0.5592566E+06
 TEMPERATURE[K]               =                    0.2930276E+03   0.2985090E+03
 PRESSURE[bar]                =                   -0.8336715E+03   0.6980162E+01
 VOLUME[A^3]                  =                    0.1063838E+05   0.1063308E+05
 CELL LNTHS[A]                =    0.2614703E+02   0.2621353E+02   0.2622762E+02
 AVE. CELL LNTHS[A]           =    0.2620214E+02   0.2619857E+02   0.2620077E+02
 CELL ANGLS[deg]              =    0.5296867E+02   0.5306557E+02   0.5309014E+02
 AVE. CELL ANGLS[deg]         =    0.5300669E+02   0.5300709E+02   0.5300660E+02
 LIST UPDATES[steps]          =                            64.00           83.27
 *******************************************************************************


 *******************************************************************************
 ENSEMBLE TYPE                =                                            NPT_F
 STEP NUMBER                  =                                             1994
 CONSERVED QNTY               =                                   -0.8813463E+08

                                                   INSTANTANEOUS        AVERAGES
 {E-E0}/E0                    =                    0.4061466E-05   0.3500554E-05
 POTENTIAL ENERGY[K]          =                   -0.8869041E+08  -0.8866655E+08
 KINETIC ENERGY[K]            =                    0.5486519E+06   0.5592513E+06
 TEMPERATURE[K]               =                    0.2928486E+03   0.2985062E+03
 PRESSURE[bar]                =                   -0.6250955E+03   0.6663173E+01
 VOLUME[A^3]                  =                    0.1063646E+05   0.1063309E+05
 CELL LNTHS[A]                =    0.2614135E+02   0.2621157E+02   0.2622266E+02
 AVE. CELL LNTHS[A]           =    0.2620211E+02   0.2619857E+02   0.2620078E+02
 CELL ANGLS[deg]              =    0.5297638E+02   0.5307856E+02   0.5310094E+02
 AVE. CELL ANGLS[deg]         =    0.5300667E+02   0.5300712E+02   0.5300665E+02
 LIST UPDATES[steps]          =                            64.00           83.27
 *******************************************************************************


 *******************************************************************************
 ENSEMBLE TYPE                =                                            NPT_F
 STEP NUMBER                  =                                             1995
 CONSERVED QNTY               =                                   -0.8813424E+08

                                                   INSTANTANEOUS        AVERAGES
 {E-E0}/E0                    =                    0.3329871E-06   0.3498966E-05
 POTENTIAL ENERGY[K]          =                   -0.8868512E+08  -0.8866656E+08
 KINETIC ENERGY[K]            =                    0.5438312E+06   0.5592436E+06
 TEMPERATURE[K]               =                    0.2902755E+03   0.2985020E+03
 PRESSURE[bar]                =                   -0.3615477E+03   0.6478607E+01
 VOLUME[A^3]                  =                    0.1063450E+05   0.1063309E+05
 CELL LNTHS[A]                =    0.2613587E+02   0.2620959E+02   0.2621760E+02
 AVE. CELL LNTHS[A]           =    0.2620208E+02   0.2619858E+02   0.2620079E+02
 CELL ANGLS[deg]              =    0.5298406E+02   0.5309112E+02   0.5311148E+02
 AVE. CELL ANGLS[deg]         =    0.5300666E+02   0.5300716E+02   0.5300670E+02
 LIST UPDATES[steps]          =                            64.00           83.27
 *******************************************************************************


 *******************************************************************************
 ENSEMBLE TYPE                =                                            NPT_F
 STEP NUMBER                  =                                             1996
 CONSERVED QNTY               =                                   -0.8813391E+08

                                                   INSTANTANEOUS        AVERAGES
 {E-E0}/E0                    =                    0.4080401E-05   0.3499258E-05
 POTENTIAL ENERGY[K]          =                   -0.8868097E+08  -0.8866657E+08
 KINETIC ENERGY[K]            =                    0.5400738E+06   0.5592339E+06
 TEMPERATURE[K]               =                    0.2882700E+03   0.2984969E+03
 PRESSURE[bar]                =                   -0.2306248E+03   0.6359817E+01
 VOLUME[A^3]                  =                    0.1063252E+05   0.1063309E+05
 CELL LNTHS[A]                =    0.2613055E+02   0.2620762E+02   0.2621246E+02
 AVE. CELL LNTHS[A]           =    0.2620204E+02   0.2619858E+02   0.2620080E+02
 CELL ANGLS[deg]              =    0.5299179E+02   0.5310332E+02   0.5312182E+02
 AVE. CELL ANGLS[deg]         =    0.5300665E+02   0.5300721E+02   0.5300676E+02
 LIST UPDATES[steps]          =                            64.00           83.27
 *******************************************************************************


 *******************************************************************************
 ENSEMBLE TYPE                =                                            NPT_F
 STEP NUMBER                  =                                             1997
 CONSERVED QNTY               =                                   -0.8813395E+08

                                                   INSTANTANEOUS        AVERAGES
 {E-E0}/E0                    =                    0.3605394E-05   0.3499311E-05
 POTENTIAL ENERGY[K]          =                   -0.8868288E+08  -0.8866658E+08
 KINETIC ENERGY[K]            =                    0.5419793E+06   0.5592253E+06
 TEMPERATURE[K]               =                    0.2892870E+03   0.2984923E+03
 PRESSURE[bar]                =                   -0.3866752E+03   0.6163005E+01
 VOLUME[A^3]                  =                    0.1063052E+05   0.1063309E+05
 CELL LNTHS[A]                =    0.2612537E+02   0.2620564E+02   0.2620721E+02
 AVE. CELL LNTHS[A]           =    0.2620200E+02   0.2619859E+02   0.2620080E+02
 CELL ANGLS[deg]              =    0.5299973E+02   0.5311526E+02   0.5313199E+02
 AVE. CELL ANGLS[deg]         =    0.5300665E+02   0.5300727E+02   0.5300682E+02
 LIST UPDATES[steps]          =                            64.00           83.27
 *******************************************************************************


 *******************************************************************************
 ENSEMBLE TYPE                =                                            NPT_F
 STEP NUMBER                  =                                             1998
 CONSERVED QNTY               =                                   -0.8813431E+08

                                                   INSTANTANEOUS        AVERAGES
 {E-E0}/E0                    =                    0.5138822E-06   0.3497817E-05
 POTENTIAL ENERGY[K]          =                   -0.8869013E+08  -0.8866659E+08
 KINETIC ENERGY[K]            =                    0.5488815E+06   0.5592201E+06
 TEMPERATURE[K]               =                    0.2929712E+03   0.2984895E+03
 PRESSURE[bar]                =                   -0.7292670E+03   0.5794921E+01
 VOLUME[A^3]                  =                    0.1062850E+05   0.1063308E+05
 CELL LNTHS[A]                =    0.2612029E+02   0.2620362E+02   0.2620183E+02
 AVE. CELL LNTHS[A]           =    0.2620196E+02   0.2619859E+02   0.2620080E+02
 CELL ANGLS[deg]              =    0.5300803E+02   0.5312704E+02   0.5314207E+02
 AVE. CELL ANGLS[deg]         =    0.5300665E+02   0.5300733E+02   0.5300689E+02
 LIST UPDATES[steps]          =                            64.00           83.27
 *******************************************************************************


 *******************************************************************************
 ENSEMBLE TYPE                =                                            NPT_F
 STEP NUMBER                  =                                             1999
 CONSERVED QNTY               =                                   -0.8813468E+08

                                                   INSTANTANEOUS        AVERAGES
 {E-E0}/E0                    =                    0.4671293E-05   0.3498404E-05
 POTENTIAL ENERGY[K]          =                   -0.8869705E+08  -0.8866660E+08
 KINETIC ENERGY[K]            =                    0.5554302E+06   0.5592182E+06
 TEMPERATURE[K]               =                    0.2964666E+03   0.2984885E+03
 PRESSURE[bar]                =                   -0.9488530E+03   0.5317359E+01
 VOLUME[A^3]                  =                    0.1062644E+05   0.1063308E+05
 CELL LNTHS[A]                =    0.2611526E+02   0.2620151E+02   0.2619626E+02
 AVE. CELL LNTHS[A]           =    0.2620192E+02   0.2619859E+02   0.2620080E+02
 CELL ANGLS[deg]              =    0.5301685E+02   0.5313874E+02   0.5315215E+02
 AVE. CELL ANGLS[deg]         =    0.5300665E+02   0.5300739E+02   0.5300696E+02
 LIST UPDATES[steps]          =                            64.00           83.27
 *******************************************************************************


 *******************************************************************************
 ENSEMBLE TYPE                =                                            NPT_F
 STEP NUMBER                  =                                             2000
 CONSERVED QNTY               =                                   -0.8813476E+08

                                                   INSTANTANEOUS        AVERAGES
 {E-E0}/E0                    =                    0.5538817E-05   0.3499424E-05
 POTENTIAL ENERGY[K]          =                   -0.8869781E+08  -0.8866662E+08
 KINETIC ENERGY[K]            =                    0.5560905E+06   0.5592167E+06
 TEMPERATURE[K]               =                    0.2968190E+03   0.2984877E+03
 PRESSURE[bar]                =                   -0.7881247E+03   0.4920638E+01
 VOLUME[A^3]                  =                    0.1062433E+05   0.1063308E+05
 CELL LNTHS[A]                =    0.2611027E+02   0.2619927E+02   0.2619049E+02
 AVE. CELL LNTHS[A]           =    0.2620187E+02   0.2619859E+02   0.2620079E+02
 CELL ANGLS[deg]              =    0.5302628E+02   0.5315042E+02   0.5316228E+02
 AVE. CELL ANGLS[deg]         =    0.5300666E+02   0.5300746E+02   0.5300704E+02
 LIST UPDATES[steps]          =                            64.00           83.27
 *******************************************************************************


 -------------------------------------------------------------------------------
 -                                                                             -
 -                                T I M I N G                                  -
 -                                                                             -
 -------------------------------------------------------------------------------
 SUBROUTINE                        CALLS  CPU TIME T  PERFORMANCE   ELAPSED TIME
 CP2K                                  1   2690.17 I       ---           2721.87
 CNTL_WORK                             1   2690.09 I       ---           2721.78
 VELOCITY VERLET                    2000   2654.21 I       ---           2682.33
 FORCE                              2001   2647.19 I       ---           2675.23
 EWALD                              2001   2256.28 E 118.4 Mflops        2280.11
 NONBOND                            2001    371.58 E 123.6 Mflops         375.57
 -------------------------------------------------------------------------------


  **** **** ******  **  PROGRAM ENDED AT                Sun Sep 22 19:30:57 2002
 ***** ** ***  *** **   PROGRAM RAN ON                 frost067.pacific.llnl.gov
 **    ****   ******    PROGRAM RAN BY                                   cjmundy
 ***** **    ** ** **   PROGRAM PROCESS ID                                 65644
  **** **  *******  **  PROGRAM RAN IN     
                                /g/g20/cjmundy/cp2k5/cp2k/tests/Fist/Al2O3_solid
