#     Step Nr.          Time[fs]        Kin.[a.u.]          Temp[K]            Pot.[a.u.]        Cons Qty[a.u.]        UsedTime[s]
         0            0.000000         0.135894380       298.000000000      -550.711286494      -550.439497734         0.000000000
         1            0.500000         0.114566885       251.231373961      -550.709994526      -550.439496638         3.355585201
         2            1.000000         0.111449127       244.394506098      -550.708343677      -550.439488006         3.124169146
         3            1.500000         0.134128181       294.126939200      -550.706692829      -550.439420679         2.497722069
         4            2.000000         0.186852253       409.744475524      -550.703283467      -550.439472276         5.794188027
         5            2.500000         0.209952416       460.400348184      -550.694562680      -550.439265095         0.371262733
         6            3.000000         0.159249003       349.213874726      -550.686523765      -550.438918044         0.224024463
         7            3.500000         0.110629018       242.596105409      -550.686523765      -550.438918022         0.232930213
         8            4.000000         0.093597949       205.249023717      -550.691189207      -550.439085536         0.233121336
         9            4.500000         0.089339734       195.911270775      -550.696572409      -550.439307061         0.226996696
        10            5.000000         0.094668713       207.597080735      -550.702493931      -550.439469577         0.236492327
