#     Step Nr.          Time[fs]        Kin.[a.u.]          Temp[K]            Pot.[a.u.]        Cons Qty[a.u.]        UsedTime[s]
         0            0.000000         0.135894380       298.000000000      -550.711263504      -550.439474744         0.000000000
         1            0.500000         0.114566886       251.231375007      -550.709997890      -550.439500001         3.377662107
         2            1.000000         0.111449126       244.394502778      -550.708368350      -550.439512678         2.816402759
         3            1.500000         0.134128181       294.126938466      -550.706706287      -550.439434139         2.190768215
         4            2.000000         0.186852247       409.744461818      -550.703184775      -550.439373592         4.897307892
         5            2.500000         0.209952425       460.400369487      -550.694452213      -550.439154635         0.235547887
         6            3.000000         0.159249047       349.213970827      -550.686509747      -550.438904034         0.218089595
         7            3.500000         0.110629058       242.596194300      -550.686573672      -550.438967934         0.224864394
         8            4.000000         0.093597963       205.249054527      -550.691201544      -550.439097878         0.221398373
         9            4.500000         0.089339696       195.911187443      -550.696569605      -550.439304272         0.219497772
        10            5.000000         0.094668733       207.597124870      -550.702483838      -550.439459491         0.220978938
        11            5.500000         0.122842743       269.379332076      -550.706652455      -550.439535392         0.217101724
        12            6.000000         0.167949745       368.293551739      -550.708124985      -550.439526041         0.219130867
        13            6.500000         0.183968624       403.421024427      -550.705701422      -550.439487099         0.220204040
        14            7.000000         0.174547545       382.761733501      -550.699354291      -550.439269352         0.215424464
        15            7.500000         0.139790878       306.544551519      -550.689781724      -550.439109101         0.228237212
        16            8.000000         0.112866802       247.503295174      -550.680038129      -550.438887750         0.216014211
        17            8.500000         0.111978651       245.555687608      -550.671840521      -550.438630429         0.226669594
        18            9.000000         0.117093217       256.771314096      -550.669153406      -550.438416473         0.214803048
        19            9.500000         0.114825967       251.799510036      -550.671700334      -550.438455064         0.226150998
        20           10.000000         0.130960335       287.180234322      -550.677096994      -550.438720150         0.220465203
        21           10.500000         0.159974323       350.804413600      -550.680647103      -550.438864847         0.232671654
        22           11.000000         0.191242324       419.371372060      -550.679485790      -550.438782405         0.221046829
        23           11.500000         0.157732465       345.888289665      -550.675571753      -550.438702251         0.217305166
        24           12.000000         0.118107028       258.994479754      -550.674328570      -550.438670760         0.221422704
        25           12.500000         0.109774693       240.722673988      -550.676470075      -550.438716388         0.220743935
        26           13.000000         0.113904536       249.778921173      -550.682338887      -550.438829197         0.222709089
        27           13.500000         0.118667086       260.222620407      -550.688458914      -550.438914417         0.228932161
        28           14.000000         0.129828373       284.697977725      -550.692829962      -550.438943834         0.215435214
        29           14.500000         0.139064924       304.952620053      -550.696712597      -550.439010164         0.223946783
        30           15.000000         0.160144442       351.177464237      -550.698299520      -550.439032413         0.220566924
        31           15.500000         0.164913279       361.634948697      -550.695167730      -550.438943217         0.232300909
        32           16.000000         0.138688468       304.127097587      -550.690470325      -550.438730207         0.223565099
        33           16.500000         0.126912534       278.303893730      -550.688773495      -550.438585703         0.222819590
        34           17.000000         0.123428674       270.664208367      -550.688820598      -550.438511547         0.219901996
        35           17.500000         0.130723924       286.661812858      -550.688075922      -550.438414420         0.212061705
        36           18.000000         0.125346095       274.868882396      -550.687331246      -550.438384202         0.214387152
        37           18.500000         0.130951894       287.161724400      -550.686831617      -550.438363456         0.217241415
        38           19.000000         0.158185502       346.881743871      -550.687304330      -550.438318186         0.215130051
        39           19.500000         0.154355821       338.483715011      -550.685750491      -550.438250495         0.218707342
        40           20.000000         0.156108227       342.326531473      -550.682597953      -550.438103533         0.210090593
        41           20.500000         0.146263139       320.737438608      -550.681832529      -550.438031758         0.232010446
        42           21.000000         0.133128269       291.934250903      -550.682154961      -550.438088098         0.217510009
        43           21.500000         0.123246347       270.264387705      -550.683499079      -550.438168596         0.218975245
        44           22.000000         0.106107139       232.680168864      -550.683609547      -550.438278615         0.224600450
        45           22.500000         0.116265691       254.956649927      -550.682744309      -550.438237329         0.215211752
        46           23.000000         0.139953630       306.901445485      -550.680347663      -550.438228903         0.223873122
        47           23.500000         0.147662751       323.806620117      -550.675071564      -550.438130596         0.213524292
        48           24.000000         0.160649682       352.285393911      -550.671869120      -550.438207901         0.221254562
        49           24.500000         0.150489153       330.004577642      -550.669987803      -550.438207152         0.214197570
        50           25.000000         0.141558815       310.421424156      -550.669217893      -550.438269293         0.223502058
        51           25.500000         0.137507907       301.538270328      -550.669741633      -550.438306239         0.219302179
        52           26.000000         0.121470994       266.371251692      -550.670770049      -550.438337064         0.213908637
        53           26.500000         0.115265717       252.763828781      -550.672658095      -550.438343376         0.216547157
        54           27.000000         0.139432343       305.758325767      -550.676102784      -550.438350129         0.216492866
        55           27.500000         0.136553280       299.444888745      -550.677472136      -550.438289362         0.217010353
        56           28.000000         0.131921084       289.287041509      -550.676355121      -550.438154859         0.222788039
        57           28.500000         0.136504107       299.337057935      -550.674588758      -550.438031710         0.213552973
        58           29.000000         0.156567307       343.333238075      -550.673102770      -550.437978182         0.224732892
        59           29.500000         0.147505905       323.462674114      -550.672898096      -550.437944502         0.212721303
        60           30.000000         0.128864907       282.585213195      -550.674208009      -550.437970973         0.224160776
        61           30.500000         0.143652530       315.012687643      -550.676075868      -550.437998583         0.229253604
        62           31.000000         0.146890620       322.113429698      -550.676789142      -550.437901922         0.223568168
        63           31.500000         0.132326908       290.176963585      -550.675666520      -550.437913289         0.215423965
        64           32.000000         0.125832642       275.935820256      -550.675898671      -550.437847224         0.218936315
        65           32.500000         0.125372938       274.927744859      -550.676405589      -550.437866568         0.223107502
        66           33.000000         0.145724738       319.556789841      -550.678346906      -550.437885534         0.220971789
        67           33.500000         0.146964753       322.275993951      -550.680779440      -550.437979793         0.221895799
        68           34.000000         0.128228004       281.188560690      -550.682539074      -550.438008108         0.221485404
        69           34.500000         0.133737587       293.270412459      -550.683796276      -550.438044751         0.225574302
        70           35.000000         0.142147400       311.712120394      -550.682433653      -550.437956857         0.225487361
        71           35.500000         0.142085813       311.577066776      -550.677647650      -550.437869752         0.217378446
        72           36.000000         0.134348270       294.609567268      -550.672360897      -550.437645598         0.220661166
        73           36.500000         0.121123716       265.609714575      -550.671063882      -550.437605692         0.222017610
        74           37.000000         0.121599722       266.653538294      -550.675049134      -550.437814732         0.223193054
        75           37.500000         0.125086023       274.298574864      -550.682343933      -550.438060188         0.226461502
        76           38.000000         0.134715301       295.414421027      -550.688443774      -550.438306040         0.215979561
        77           38.500000         0.143196615       314.012922434      -550.692287156      -550.438341634         0.223103693
        78           39.000000         0.142582581       312.666418794      -550.693010524      -550.438291875         0.213257109
        79           39.500000         0.122720226       269.110668784      -550.691063599      -550.438323014         0.227226441
        80           40.000000         0.120659990       264.592817767      -550.690070510      -550.438285966         0.223150824
        81           40.500000         0.122033018       267.603703335      -550.689656677      -550.438277207         0.236415587
        82           41.000000         0.121018783       265.379608632      -550.688286764      -550.438246494         0.219852586
        83           41.500000         0.138888728       304.566244213      -550.684887496      -550.438092454         0.217027162
        84           42.000000         0.143629545       314.962284683      -550.678787095      -550.438014063         0.221502545
        85           42.500000         0.141530563       310.359469205      -550.672583515      -550.437804432         0.220543163
        86           43.000000         0.139344885       305.566541111      -550.669929485      -550.437737276         0.220982959
        87           43.500000         0.128968304       282.811950454      -550.668373403      -550.437683881         0.225042346
        88           44.000000         0.118971651       260.890495118      -550.668531534      -550.437742010         0.213988307
        89           44.500000         0.132943905       291.529963839      -550.673016414      -550.437882929         0.224493789
        90           45.000000         0.134677763       295.332105348      -550.678773076      -550.437986998         0.213148188
        91           45.500000         0.132386687       290.308051305      -550.684561140      -550.438093737         0.224024624
        92           46.000000         0.129828891       284.699113151      -550.687605453      -550.438173927         0.219189738
        93           46.500000         0.128845847       282.543417404      -550.685494228      -550.438186350         0.217563109
        94           47.000000         0.130468463       286.101618236      -550.681444490      -550.438035081         0.213491122
        95           47.500000         0.117091363       256.767248907      -550.679211022      -550.438004454         0.211343897
        96           48.000000         0.126525317       277.454774770      -550.679440369      -550.437997075         0.223426347
        97           48.500000         0.147757910       324.015290616      -550.681853838      -550.438075452         0.223798541
        98           49.000000         0.144233290       316.286223934      -550.681392901      -550.438000798         0.220144519
        99           49.500000         0.141426440       310.131141934      -550.679225041      -550.437873313         0.224686771
       100           50.000000         0.125654054       275.544199365      -550.678468589      -550.437906368         0.214969879
