      96
 i =        0, time =        0.000, E =      -550.7112864944
  H        42.8861696700       -0.0556816600       38.3291611200
  H        34.2025887200       -0.6185484000       37.3655680800
  H        30.0803925900       -2.0124176500       36.4807960800
  H        28.7057911800       -2.6880392800       36.6020983300
  H        36.2479426700       -0.5163484900       34.4923596100
  H        37.6964724600       -0.0410872800       35.0140735100
  H        27.7606699800        7.4854206000       33.9276919500
  H        28.8160999600        6.4985777400       34.2163608400
  H        37.1576372000        9.0188280800       31.9265812100
  H        38.6063816500        9.5820079600       32.3435972800
  H        34.3031959300        2.2195014400       45.9880451900
  H        33.2444139400        1.3025332500       46.4698427200
  H        38.7286174800       -5.0541897700       26.0743968400
  H        38.3483921500       -6.2832846900       26.9867253100
  H        32.8642520900        3.2060632700       30.8971160000
  H        31.2904088100        3.0871834700       30.6273977500
  H        33.7519869700       -3.1383262400       39.6727607700
  H        34.6642979900       -3.6643859100       38.6466027200
  H        42.7173214400        5.1246883700       32.5883401200
  H        41.5627455200        5.5893544000       33.4174902800
  H        32.4283800900        9.1182521000       30.5477678600
  H        32.6432407000       10.7706830800       30.4842778700
  H        31.4848670800        4.6777144700       37.3957195000
  H        32.3171883000       -6.2287496200       36.4671864400
  H        26.6621341000        3.1708123800       35.6820146500
  H        26.5271367500        1.6039040300       35.4883483000
  H        32.0238236600       16.9182080300       31.6883569900
  H        31.4006579700        7.0315610800       30.2394554700
  H        33.5264253100       -3.5594808100       34.2636830800
  H        34.6404855500       -3.2653833600       35.4971482400
  H        40.0564375100       -0.3054386500       29.8312074300
  H        39.4784464200       -1.0948314600       38.3101140400
  H        39.7040761500        1.9584631400       33.3902376000
  H        38.3338570800        2.6967178100       42.9261945700
  H        40.1820455500       -7.2199289500       27.6580390500
  H        39.3204431800       -8.4564252700       28.1319658900
  H        36.3876963700        8.8117085900       38.3545362400
  H        36.3205637600        9.0063075800       36.7526001400
  H        29.9991583100       -5.5637817500       33.9295050600
  H        30.7728545500       -5.0385870200       35.1998067200
  H        40.0592517800        6.3305279500       28.2579461900
  H        40.2398360900        5.1745924000       29.2962956800
  H        26.3320911100        2.4393638600       33.5653868500
  H        26.9606971200        1.2711078900       32.5923884400
  H        34.8372697700       -0.4722708400       30.3824362000
  H        35.3968813700       -1.9268483400       30.3081837600
  H        32.1217607200       -0.7333429900       36.5104383000
  H        32.2180843500        7.8454304100       35.6671967800
  H        36.3780998700       -4.3048878800       36.4539793000
  H        35.8119275600       -3.0013928200       27.0348937600
  H        29.6452491400        1.0652123600       35.7143654000
  H        30.3794655000       -0.0668146500       34.9882468700
  H        34.2149336600       -1.6559120500       33.8876437100
  H        34.7842435500       -1.0252141100       32.5034832600
  H        40.4649954500        1.1467825400       31.3073503200
  H        41.3262469900        0.6550803500       32.4555882900
  H        29.0210859900        3.5038194900       39.9087702900
  H        29.4945426900        3.7276637300       41.3766138000
  H        34.1359664000       -6.7533422300       32.3568410300
  H        34.9546570100       -5.7704242400       31.4571066900
  H        33.2532356900        1.5268048300       44.0562171900
  H        33.7931669400        0.5014632600       43.0597590100
  H        36.8205409600        2.6214682000       40.6834006600
  H        37.5552706700        1.5649832900       39.7648935100
  O        43.2099087200       -0.0628456500       47.2593155900
  O        29.3940583500       -2.3133019500       37.1407883600
  O        36.7415708400       -0.0838710000       35.2591783400
  O        27.9424776900        6.7622961500       34.5648384400
  O        37.6812656000        9.4216399800       32.6478643500
  O        33.3171290800        2.0951401700       45.8722265100
  O        37.9951355900        4.3611431200       26.5571819900
  O        32.1824670900        2.6611503400       30.4577248200
  O        34.6538012100       -3.4374573100       39.5889245700
  O        42.2929833700        5.9471069500       32.8460995500
  O        32.9604690100        9.9050313200       30.1587306700
  O        31.4281886600       -5.8338304000       36.6738743600
  O        26.0563730800        2.4973869200       35.3486870400
  O        32.0334927100       17.3252289400       30.8116013800
  O        33.8252182400       -2.9520949600       35.0220460700
  O        39.4569981600       -0.3072759400       38.9347829000
  O        29.4846708900        2.8692561100       43.0061868400
  O        39.2864184100       -7.6206103100       27.6271147800
  O        35.8797502800        8.6515870800       37.5221734300
  O        30.3582543900       -4.7607656800       34.3355645700
  O        40.7098956900        5.8331250200       28.7558375900
  O        26.7179083000        2.2415138300       32.6577298000
  O        35.6589256200       -0.9968903500       30.5749530600
  O        31.5851602000       -1.3121804200       35.9011109400
  O        35.5489386700       -3.9056138900       26.8214490000
  O        29.5656616100        0.4681794600       34.9670712000
  O        34.7615128200       -0.9569680200       33.4891367300
  O        40.4853406700        0.4023620900       31.9425416200
  O        29.6728289800        4.0134825300       40.4505780000
  O        34.1272286200       -5.8796882900       31.8925423000
  O        33.1168884200        1.2338084900       43.1127712000
  O        37.1996993500        2.5049007100       39.7917126600
      96
 i =        1, time =        0.500, E =      -550.7099945259
  H        42.8870867535       -0.0503553219       38.3309630536
  H        34.1930469190       -0.6182562979       37.3625272115
  H        30.0982825416       -2.0187422662       36.4759980821
  H        28.7007872742       -2.6839298155       36.6003138227
  H        36.2659813464       -0.5113301292       34.5047579639
  H        37.6876964730       -0.0469935111       35.0087475264
  H        27.7505324370        7.5005115789       33.9330410140
  H        28.8053739001        6.5022231754       34.1977001625
  H        37.1545932489        9.0183012844       31.9289630462
  H        38.6026783392        9.5929352267       32.3462611286
  H        34.2953146954        2.2127372064       45.9862370583
  H        33.2453945034        1.3011474661       46.4759469372
  H        38.7318308413       -5.0523932644       26.0747118631
  H        38.3587579594       -6.2795628902       26.9742060832
  H        32.8653822511        3.2161848590       30.8947354715
  H        31.2983926061        3.0861505164       30.6341134666
  H        33.7410973246       -3.1477713052       39.6761342657
  H        34.6634756937       -3.6687208283       38.6430408919
  H        42.7214743069        5.1276879569       32.5849587670
  H        41.5537928641        5.5783870295       33.4155291468
  H        32.4306593008        9.1127986716       30.5311222274
  H        32.6445380989       10.7712712241       30.4850263078
  H        31.4790839927        4.6748726089       37.3905640272
  H        32.3155757179       -6.2210143302       36.4760576904
  H        26.6597710673        3.1790770390       35.6896879900
  H        26.5275679040        1.6044218252       35.4905665778
  H        32.0251783977       16.9203478865       31.6848037039
  H        31.4077452999        7.0287447858       30.2429320544
  H        33.5339719688       -3.5628546783       34.2668463427
  H        34.6502602168       -3.2546496729       35.4952594390
  H        40.0477472374       -0.3014956242       29.8285089055
  H        39.4744009424       -1.0999129316       38.2970853189
  H        39.7003686239        1.9608143076       33.3798159109
  H        38.3350912068        2.7097177651       42.9149107489
  H        40.1672783847       -7.2140181327       27.6560387702
  H        39.3262057338       -8.4590908423       28.1296650080
  H        36.3746670305        8.8108860859       38.3630903049
  H        36.3191126849        8.9948733645       36.7457159909
  H        30.0185859912       -5.5628215584       33.9340137503
  H        30.7662813933       -5.0306760937       35.1992174725
  H        40.0527486771        6.3432513446       28.2680865357
  H        40.2392313704        5.1654901203       29.3076213412
  H        26.3188790335        2.4379548882       33.5655996900
  H        26.9567003827        1.2677330664       32.5850075877
  H        34.8437616441       -0.4761529650       30.3776026967
  H        35.4085219691       -1.9205401847       30.3204701445
  H        32.1281888723       -0.7365995489       36.5094965667
  H        32.2153548149        7.8374666737       35.6711345779
  H        36.3833094412       -4.3081003919       36.4608191436
  H        35.8009106133       -3.0057894248       27.0195432217
  H        29.6468560390        1.0627777100       35.7265485607
  H        30.3796424719       -0.0736862447       34.9872486269
  H        34.2080553178       -1.6517541191       33.8941235217
  H        34.7892184121       -1.0268936396       32.5034482001
  H        40.4571174385        1.1463333104       31.3072396697
  H        41.3150763354        0.6447171125       32.4381290665
  H        29.0302146141        3.5125914808       39.9107396046
  H        29.4942767116        3.7146588317       41.3643342217
  H        34.1251469675       -6.7644224460       32.3597234957
  H        34.9573376245       -5.7589122061       31.4562547147
  H        33.2640421290        1.5245710042       44.0580012936
  H        33.7818469462        0.4859733920       43.0514196144
  H        36.8202237277        2.6216949827       40.6892899503
  H        37.5629460022        1.5716175929       39.7565464159
  O        43.2148795352       -0.0657706540       47.2608115313
  O        29.3931403597       -2.3127050474       37.1382703889
  O        36.7421394001       -0.0850568435       35.2551704595
  O        27.9418039798        6.7625669820       34.5652823004
  O        37.6824386850        9.4188411176       32.6499273931
  O        33.3157767459        2.0968735073       45.8732460219
  O        37.9947466117        4.3590430120       26.5596011804
  O        32.1806541135        2.6590166438       30.4595508567
  O        34.6519583749       -3.4360407943       39.5921540009
  O        42.2960935117        5.9445115835       32.8463853222
  O        32.9588338429        9.9058166781       30.1571894900
  O        31.4277840112       -5.8329707575       36.6713226842
  O        26.0611355813        2.4975997942       35.3525522608
  O        32.0315739547       17.3230758991       30.8109527820
  O        33.8262212319       -2.9486569123       35.0197457790
  O        39.4565742253       -0.3047293545       38.9351833981
  O        29.4860301126        2.8711814553       43.0093261112
  O        39.2841684894       -7.6225464924       27.6258717323
  O        35.8790750863        8.6524438765       37.5233183954
  O        30.3561765503       -4.7613221190       34.3375393190
  O        40.7122956635        5.8329584151       28.7539906577
  O        26.7146898553        2.2424248102       32.6562034449
  O        35.6550678915       -0.9970257751       30.5752601463
  O        31.5857698238       -1.3110030844       35.8999173853
  O        35.5469684968       -3.9047142681       26.8213720396
  O        29.5662120076        0.4654683537       34.9688142610
  O        34.7646878849       -0.9548142118       33.4898422439
  O        40.4865095593        0.4002274342       31.9438888006
  O        29.6764353975        4.0129403920       40.4492636315
  O        34.1288030185       -5.8788293038       31.8893186215
  O        33.1179190063        1.2351417819       43.1114531310
  O        37.1976975684        2.5052260376       39.7948780624
      96
 i =        2, time =        1.000, E =      -550.7083436773
  H        42.8881984536       -0.0452408158       38.3365038612
  H        34.1884212674       -0.6171476334       37.3604346180
  H        30.1044446785       -2.0318132524       36.4708391228
  H        28.6927012280       -2.6795070324       36.5968987476
  H        36.2736495868       -0.5030136694       34.5149919287
  H        37.6831177162       -0.0542568398       35.0017436357
  H        27.7429537434        7.5099406107       33.9396496048
  H        28.7933663749        6.5039219879       34.1833855027
  H        37.1510265059        9.0182251668       31.9311247836
  H        38.5976865918        9.6066714494       32.3509305225
  H        34.2860102078        2.2056761158       45.9833789394
  H        33.2455113479        1.3004173573       46.4863288351
  H        38.7353660223       -5.0515648397       26.0759677644
  H        38.3733495743       -6.2766567473       26.9652440519
  H        32.8662181736        3.2236981646       30.8875328097
  H        31.3090795455        3.0851911066       30.6397971483
  H        33.7248963834       -3.1536259961       39.6813338914
  H        34.6640745685       -3.6735223129       38.6392924926
  H        42.7325441940        5.1314852981       32.5803917281
  H        41.5488435870        5.5717802010       33.4126908046
  H        32.4356581751        9.1105778642       30.5226120964
  H        32.6453321427       10.7723726145       30.4860463285
  H        31.4717916930        4.6730648060       37.3860015632
  H        32.3133359068       -6.2148231191       36.4849966380
  H        26.6583564436        3.1890683230       35.7010298873
  H        26.5263470669        1.6083645364       35.4929558591
  H        32.0266907232       16.9209079688       31.6814943847
  H        31.4174500815        7.0224702652       30.2461711995
  H        33.5466406834       -3.5653620848       34.2736687882
  H        34.6547258461       -3.2492887228       35.4910887031
  H        40.0392865077       -0.2992395452       29.8260677826
  H        39.4696814548       -1.1049211432       38.2921580318
  H        39.6955199704        1.9659966051       33.3706429396
  H        38.3397093459        2.7223997180       42.9098517842
  H        40.1612543188       -7.2080810749       27.6543976382
  H        39.3362961437       -8.4614888670       28.1263182595
  H        36.3651330454        8.8104104771       38.3662362542
  H        36.3201687891        8.9786948257       36.7370820310
  H        30.0308814851       -5.5647071172       33.9387908368
  H        30.7606259319       -5.0233787595       35.1983695374
  H        40.0450092791        6.3524122071       28.2748108406
  H        40.2387480352        5.1558627099       29.3133728385
  H        26.3079849894        2.4348379645       33.5644259026
  H        26.9493888335        1.2653674688       32.5786228825
  H        34.8485568025       -0.4814014031       30.3713784615
  H        35.4205445047       -1.9130731382       30.3286992673
  H        32.1354830080       -0.7396913812       36.5082565686
  H        32.2128258355        7.8317600452       35.6742001302
  H        36.3968036632       -4.3160758013       36.4672708223
  H        35.7863217816       -3.0072687778       27.0139159270
  H        29.6484880285        1.0611910008       35.7374274723
  H        30.3800434201       -0.0833498846       34.9858998170
  H        34.2008327337       -1.6460232699       33.9016161796
  H        34.7940882276       -1.0289732340       32.5055683454
  H        40.4490118331        1.1442377134       31.3083448427
  H        41.2999270562        0.6379708521       32.4309680372
  H        29.0392241744        3.5251527340       39.9132743906
  H        29.4939367814        3.7042495198       41.3551895925
  H        34.1192487102       -6.7758116261       32.3606325721
  H        34.9637170243       -5.7480711062       31.4535998576
  H        33.2735683339        1.5225481901       44.0588511988
  H        33.7650390731        0.4794430335       43.0419123767
  H        36.8204700789        2.6209402517       40.6938347946
  H        37.5693577015        1.5801223159       39.7484298287
  O        43.2170799786       -0.0679885732       47.2634459242
  O        29.3920903906       -2.3121853098       37.1362169992
  O        36.7426760789       -0.0865908408       35.2538014882
  O        27.9412138149        6.7632813618       34.5659928840
  O        37.6849855512        9.4168986564       32.6520094683
  O        33.3143749162        2.0996766980       45.8740663887
  O        37.9940188530        4.3568023968       26.5623021420
  O        32.1782710752        2.6570291565       30.4613612111
  O        34.6497434976       -3.4347049247       39.5951375228
  O        42.2983222172        5.9430910264       32.8471413757
  O        32.9577232107        9.9067168208       30.1556232558
  O        31.4273975835       -5.8319724374       36.6687856352
  O        26.0643389320        2.4976013265       35.3547190394
  O        32.0295618640       17.3209976233       30.8101170021
  O        33.8268981070       -2.9471230907       35.0173439365
  O        39.4559904300       -0.3035892632       38.9353292886
  O        29.4878671085        2.8736131010       43.0112320169
  O        39.2812496742       -7.6252551177       27.6243998780
  O        35.8781271030        8.6536510810       37.5266107232
  O        30.3546924958       -4.7619789861       34.3395431335
  O        40.7138338558        5.8325488401       28.7522901263
  O        26.7123988831        2.2435877469       32.6546163040
  O        35.6529494659       -0.9971206790       30.5755361010
  O        31.5866285622       -1.3097149964       35.8987788243
  O        35.5443433707       -3.9040082859       26.8213066397
  O        29.5670369520        0.4610821315       34.9706917996
  O        34.7665840292       -0.9522689960       33.4902160730
  O        40.4880350067        0.3981231366       31.9456252315
  O        29.6795589566        4.0121881467       40.4483115787
  O        34.1301136508       -5.8782782305       31.8864817396
  O        33.1198359834        1.2361782460       43.1100693294
  O        37.1954066299        2.5056228377       39.7977860863
      96
 i =        3, time =        1.500, E =      -550.7066928287
  H        42.8896475331       -0.0395647612       38.3526637047
  H        34.1855857552       -0.6156514064       37.3587855736
  H        30.1072012009       -2.0507544226       36.4652439960
  H        28.6821525399       -2.6740037935       36.5910188983
  H        36.2775508307       -0.4900708378       34.5216843361
  H        37.6807416422       -0.0644747567       34.9917588562
  H        27.7377497965        7.5146412269       33.9480859789
  H        28.7841082173        6.5041702675       34.1776188743
  H        37.1465994496        9.0187116474       31.9341235448
  H        38.5902661082        9.6174793579       32.3594479707
  H        34.2769662836        2.1977582354       45.9790427903
  H        33.2442842432        1.3005444876       46.5027897900
  H        38.7386048090       -5.0520685325       26.0798822576
  H        38.3848289381       -6.2739442790       26.9614588579
  H        32.8667564377        3.2280856793       30.8714791915
  H        31.3198297956        3.0842713540       30.6452471133
  H        33.7144422216       -3.1571500288       39.6895042082
  H        34.6659841911       -3.6793495982       38.6348855874
  H        42.7501594054        5.1392982787       32.5745129820
  H        41.5458291164        5.5685279808       33.4065987022
  H        32.4455362650        9.1110245844       30.5177623522
  H        32.6457950407       10.7742419125       30.4881072528
  H        31.4620020352        4.6721616649       37.3814320472
  H        32.3102550711       -6.2097303692       36.4925100161
  H        26.6570095205        3.1987248388       35.7154419000
  H        26.5203158196        1.6203617818       35.4970677879
  H        32.0295856818       16.9193816854       31.6781712764
  H        31.4275451673        7.0059177733       30.2489091142
  H        33.5615141497       -3.5677642991       34.2844505401
  H        34.6559467576       -3.2460557737       35.4823415704
  H        40.0310495673       -0.2982979590       29.8235656797
  H        39.4629614813       -1.1102584633       38.2918949000
  H        39.6887614685        1.9749562566       33.3637004198
  H        38.3522955460        2.7291813329       42.9076270303
  H        40.1589061963       -7.2013969800       27.6525246377
  H        39.3500420156       -8.4640797015       28.1213950514
  H        36.3596355321        8.8102704659       38.3665816150
  H        36.3238752752        8.9674105577       36.7281006864
  H        30.0378240263       -5.5712277949       33.9465481806
  H        30.7554661649       -5.0165514864       35.1976409221
  H        40.0367549070        6.3570504442       28.2784807474
  H        40.2388958934        5.1471562387       29.3161028549
  H        26.3031871116        2.4281005434       33.5619049637
  H        26.9342533657        1.2646654590       32.5722854414
  H        34.8525373088       -0.4890546119       30.3616253532
  H        35.4287641634       -1.9049084521       30.3342734363
  H        32.1443802205       -0.7432551986       36.5061897623
  H        32.2094199786        7.8269625797       35.6772567426
  H        36.4140245101       -4.3305298934       36.4745986000
  H        35.7750409895       -3.0051519204       27.0124176683
  H        29.6504157990        1.0593239942       35.7430554361
  H        30.3807563639       -0.0962333425       34.9830587891
  H        34.1934030377       -1.6331793345       33.9112098430
  H        34.7996779933       -1.0318072297       32.5116624999
  H        40.4409036108        1.1388956785       31.3122611626
  H        41.2896435554        0.6335470069       32.4276155984
  H        29.0468126394        3.5385318930       39.9171649221
  H        29.4934278729        3.6966330347       41.3502236757
  H        34.1155533614       -6.7851495852       32.3597177996
  H        34.9744712152       -5.7400982007       31.4478980909
  H        33.2807025122        1.5201207659       44.0584531283
  H        33.7545313582        0.4759752058       43.0323127767
  H        36.8211844038        2.6190925929       40.6978526233
  H        37.5752177941        1.5901125503       39.7407857851
  O        43.2181997199       -0.0696991635       47.2669039455
  O        29.3902384770       -2.3116208960       37.1347798635
  O        36.7433838101       -0.0888503146       35.2532837210
  O        27.9405123110        6.7649848140       34.5670319755
  O        37.6893049825        9.4157556910       32.6540612079
  O        33.3126571101        2.1033680631       45.8749200811
  O        37.9927099102        4.3542022514       26.5647592184
  O        32.1752422889        2.6551953487       30.4632176409
  O        34.6472216423       -3.4332406189       39.5971450103
  O        42.2996099716        5.9422649572       32.8490386730
  O        32.9568508732        9.9080672733       30.1537999154
  O        31.4268662016       -5.8304549220       36.6667144747
  O        26.0657788977        2.4975053590       35.3555918430
  O        32.0272970993       17.3190744555       30.8087971822
  O        33.8274127116       -2.9461859658       35.0152238052
  O        39.4550013622       -0.3029115344       38.9351280508
  O        29.4902724261        2.8764985408       43.0122582696
  O        39.2782420450       -7.6281850781       27.6224147839
  O        35.8762804448        8.6555685656       37.5323492570
  O        30.3537701250       -4.7630353188       34.3415208175
  O        40.7149891292        5.8314497973       28.7506412715
  O        26.7108618163        2.2454123816       32.6527621073
  O        35.6521313489       -0.9971414835       30.5758843710
  O        31.5884933990       -1.3080633812       35.8974643302
  O        35.5415071953       -3.9034893662       26.8212021814
  O        29.5683222207        0.4580350506       34.9730769494
  O        34.7674489246       -0.9497140915       33.4903838098
  O        40.4899924261        0.3960791914       31.9486254475
  O        29.6814028631        4.0105718773       40.4475543920
  O        34.1314499089       -5.8779448263       31.8849158338
  O        33.1233041737        1.2370349849       43.1084393152
  O        37.1926137972        2.5063291882       39.7993048699
      96
 i =        4, time =        2.000, E =      -550.7032834675
  H        42.8917500365       -0.0309630568       38.3733344218
  H        34.1834199043       -0.6138944205       37.3568764312
  H        30.1087462706       -2.0597885199       36.4594496133
  H        28.6715647015       -2.6664715546       36.5798620847
  H        36.2791300371       -0.4759052514       34.5252362425
  H        37.6798684364       -0.0783747571       34.9780843235
  H        27.7343884238        7.5170102068       33.9577612904
  H        28.7799487760        6.5027487431       34.1744905489
  H        37.1414824187        9.0203866318       31.9413076342
  H        38.5768630862        9.6228407089       32.3709733069
  H        34.2698836674        2.1877453107       45.9723199764
  H        33.2380304810        1.3024160828       46.5155349360
  H        38.7406177761       -5.0549488854       26.0924518053
  H        38.3903388244       -6.2682868860       26.9608292421
  H        32.8668594678        3.2301517113       30.8569567909
  H        31.3262003168        3.0827322763       30.6515475061
  H        33.7106443153       -3.1592781035       39.7035995263
  H        34.6700683610       -3.6871538832       38.6275026535
  H        42.7620242330        5.1526394567       32.5675287992
  H        41.5437231160        5.5673531988       33.3886002576
  H        32.4606593385        9.1154090954       30.5137106219
  H        32.6460485043       10.7769354689       30.4935024822
  H        31.4497530947        4.6725163175       37.3747296196
  H        32.3015688639       -6.2052187827       36.4974551503
  H        26.6539117362        3.2063542902       35.7258236855
  H        26.5085344942        1.6372743556       35.5061693895
  H        32.0404262262       16.9144761564       31.6744696405
  H        31.4356750134        6.9868691514       30.2507828746
  H        33.5692200178       -3.5714468147       34.2965408206
  H        34.6554228342       -3.2440062483       35.4665914123
  H        40.0198898319       -0.2993004829       29.8208762258
  H        39.4514362173       -1.1162011153       38.2951256032
  H        39.6771161615        1.9889553607       33.3592525728
  H        38.3733216056        2.7317262432       42.9065157797
  H        40.1572815409       -7.1922381235       27.6498679000
  H        39.3615755113       -8.4676517219       28.1147011573
  H        36.3566146363        8.8106827629       38.3659514151
  H        36.3315128243        8.9622970021       36.7212646536
  H        30.0428508466       -5.5920590666       33.9641658713
  H        30.7500816327       -5.0092171585       35.1973655758
  H        40.0292809477        6.3593024003       28.2802474281
  H        40.2404036319        5.1396202448       29.3171016417
  H        26.3021262622        2.4111179785       33.5580412570
  H        26.9169464950        1.2668025472       32.5626411160
  H        34.8559782727       -0.5004758938       30.3449546164
  H        35.4326091440       -1.8957765231       30.3383495181
  H        32.1561285253       -0.7482056100       36.5016207272
  H        32.2025721178        7.8222340012       35.6836038715
  H        36.4218323787       -4.3448241099       36.4853393225
  H        35.7711908160       -2.9954365468       27.0129014297
  H        29.6529378775        1.0555490764       35.7451274128
  H        30.3811664018       -0.1081946177       34.9774001154
  H        34.1856654125       -1.6149012826       33.9233952485
  H        34.8082185602       -1.0360072788       32.5239236437
  H        40.4331966632        1.1288529023       31.3195791089
  H        41.2873711216        0.6304617203       32.4262519185
  H        29.0523933232        3.5461871132       39.9272396480
  H        29.4927129460        3.6907395074       41.3479964511
  H        34.1130036161       -6.7912511090       32.3563517810
  H        34.9872979850       -5.7352573362       31.4375156982
  H        33.2853854674        1.5153922028       44.0542780480
  H        33.7505793387        0.4734150315       43.0238256921
  H        36.8225906962        2.6153424774       40.7021466888
  H        37.5824709978        1.6003834684       39.7334553136
  O        43.2190321462       -0.0712404640       47.2697371483
  O        29.3855438759       -2.3108460536       37.1337665398
  O        36.7447834240       -0.0925877274       35.2530219202
  O        27.9392543499        6.7675531627       34.5684348956
  O        37.6924398233        9.4150351459       32.6560148746
  O        33.3101935600        2.1060207924       45.8760519690
  O        37.9905791485        4.3508613617       26.5664059641
  O        32.1722537322        2.6534876110       30.4651922572