      96
 i =        0, time =        0.000, E =      -550.7112864944
  H        42.8861696700       -0.0556816600       38.3291611200
  H        34.2025887200       -0.6185484000       37.3655680800
  H        30.0803925900       -2.0124176500       36.4807960800
  H        28.7057911800       -2.6880392800       36.6020983300
  H        36.2479426700       -0.5163484900       34.4923596100
  H        37.6964724600       -0.0410872800       35.0140735100
  H        27.7606699800        7.4854206000       33.9276919500
  H        28.8160999600        6.4985777400       34.2163608400
  H        37.1576372000        9.0188280800       31.9265812100
  H        38.6063816500        9.5820079600       32.3435972800
  H        34.3031959300        2.2195014400       45.9880451900
  H        33.2444139400        1.3025332500       46.4698427200
  H        38.7286174800       -5.0541897700       26.0743968400
  H        38.3483921500       -6.2832846900       26.9867253100
  H        32.8642520900        3.2060632700       30.8971160000
  H        31.2904088100        3.0871834700       30.6273977500
  H        33.7519869700       -3.1383262400       39.6727607700
  H        34.6642979900       -3.6643859100       38.6466027200
  H        42.7173214400        5.1246883700       32.5883401200
  H        41.5627455200        5.5893544000       33.4174902800
  H        32.4283800900        9.1182521000       30.5477678600
  H        32.6432407000       10.7706830800       30.4842778700
  H        31.4848670800        4.6777144700       37.3957195000
  H        32.3171883000       -6.2287496200       36.4671864400
  H        26.6621341000        3.1708123800       35.6820146500
  H        26.5271367500        1.6039040300       35.4883483000
  H        32.0238236600       16.9182080300       31.6883569900
  H        31.4006579700        7.0315610800       30.2394554700
  H        33.5264253100       -3.5594808100       34.2636830800
  H        34.6404855500       -3.2653833600       35.4971482400
  H        40.0564375100       -0.3054386500       29.8312074300
  H        39.4784464200       -1.0948314600       38.3101140400
  H        39.7040761500        1.9584631400       33.3902376000
  H        38.3338570800        2.6967178100       42.9261945700
  H        40.1820455500       -7.2199289500       27.6580390500
  H        39.3204431800       -8.4564252700       28.1319658900
  H        36.3876963700        8.8117085900       38.3545362400
  H        36.3205637600        9.0063075800       36.7526001400
  H        29.9991583100       -5.5637817500       33.9295050600
  H        30.7728545500       -5.0385870200       35.1998067200
  H        40.0592517800        6.3305279500       28.2579461900
  H        40.2398360900        5.1745924000       29.2962956800
  H        26.3320911100        2.4393638600       33.5653868500
  H        26.9606971200        1.2711078900       32.5923884400
  H        34.8372697700       -0.4722708400       30.3824362000
  H        35.3968813700       -1.9268483400       30.3081837600
  H        32.1217607200       -0.7333429900       36.5104383000
  H        32.2180843500        7.8454304100       35.6671967800
  H        36.3780998700       -4.3048878800       36.4539793000
  H        35.8119275600       -3.0013928200       27.0348937600
  H        29.6452491400        1.0652123600       35.7143654000
  H        30.3794655000       -0.0668146500       34.9882468700
  H        34.2149336600       -1.6559120500       33.8876437100
  H        34.7842435500       -1.0252141100       32.5034832600
  H        40.4649954500        1.1467825400       31.3073503200
  H        41.3262469900        0.6550803500       32.4555882900
  H        29.0210859900        3.5038194900       39.9087702900
  H        29.4945426900        3.7276637300       41.3766138000
  H        34.1359664000       -6.7533422300       32.3568410300
  H        34.9546570100       -5.7704242400       31.4571066900
  H        33.2532356900        1.5268048300       44.0562171900
  H        33.7931669400        0.5014632600       43.0597590100
  H        36.8205409600        2.6214682000       40.6834006600
  H        37.5552706700        1.5649832900       39.7648935100
  O        43.2099087200       -0.0628456500       47.2593155900
  O        29.3940583500       -2.3133019500       37.1407883600
  O        36.7415708400       -0.0838710000       35.2591783400
  O        27.9424776900        6.7622961500       34.5648384400
  O        37.6812656000        9.4216399800       32.6478643500
  O        33.3171290800        2.0951401700       45.8722265100
  O        37.9951355900        4.3611431200       26.5571819900
  O        32.1824670900        2.6611503400       30.4577248200
  O        34.6538012100       -3.4374573100       39.5889245700
  O        42.2929833700        5.9471069500       32.8460995500
  O        32.9604690100        9.9050313200       30.1587306700
  O        31.4281886600       -5.8338304000       36.6738743600
  O        26.0563730800        2.4973869200       35.3486870400
  O        32.0334927100       17.3252289400       30.8116013800
  O        33.8252182400       -2.9520949600       35.0220460700
  O        39.4569981600       -0.3072759400       38.9347829000
  O        29.4846708900        2.8692561100       43.0061868400
  O        39.2864184100       -7.6206103100       27.6271147800
  O        35.8797502800        8.6515870800       37.5221734300
  O        30.3582543900       -4.7607656800       34.3355645700
  O        40.7098956900        5.8331250200       28.7558375900
  O        26.7179083000        2.2415138300       32.6577298000
  O        35.6589256200       -0.9968903500       30.5749530600
  O        31.5851602000       -1.3121804200       35.9011109400
  O        35.5489386700       -3.9056138900       26.8214490000
  O        29.5656616100        0.4681794600       34.9670712000
  O        34.7615128200       -0.9569680200       33.4891367300
  O        40.4853406700        0.4023620900       31.9425416200
  O        29.6728289800        4.0134825300       40.4505780000
  O        34.1272286200       -5.8796882900       31.8925423000
  O        33.1168884200        1.2338084900       43.1127712000
  O        37.1996993500        2.5049007100       39.7917126600
      96
 i =        1, time =        0.500, E =      -550.7099945259
  H        42.8870867546       -0.0503553219       38.3309630527
  H        34.1930469189       -0.6182562976       37.3625272110
  H        30.0982825424       -2.0187422651       36.4759980824
  H        28.7007872746       -2.6839298152       36.6003138229
  H        36.2659813460       -0.5113301298       34.5047579634
  H        37.6876964731       -0.0469935102       35.0087475264
  H        27.7505324368        7.5005115794       33.9330410137
  H        28.8053739009        6.5022231752       34.1977001628
  H        37.1545932482        9.0183012838       31.9289630456
  H        38.6026783385        9.5929352265       32.3462611293
  H        34.2953146953        2.2127372069       45.9862370581
  H        33.2453945032        1.3011474657       46.4759469374
  H        38.7318308418       -5.0523932647       26.0747118630
  H        38.3587579589       -6.2795628908       26.9742060829
  H        32.8653822510        3.2161848592       30.8947354713
  H        31.2983926061        3.0861505166       30.6341134670
  H        33.7410973246       -3.1477713055       39.6761342652
  H        34.6634756936       -3.6687208281       38.6430408909
  H        42.7214743069        5.1276879566       32.5849587668
  H        41.5537928649        5.5783870296       33.4155291463
  H        32.4306593011        9.1127986716       30.5311222276
  H        32.6445380990       10.7712712234       30.4850263076
  H        31.4790839928        4.6748726085       37.3905640271
  H        32.3155757172       -6.2210143295       36.4760576908
  H        26.6597710666        3.1790770386       35.6896879895
  H        26.5275679035        1.6044218246       35.4905665774
  H        32.0251783980       16.9203478877       31.6848037030
  H        31.4077453000        7.0287447855       30.2429320541
  H        33.5339719681       -3.5628546791       34.2668463416
  H        34.6502602171       -3.2546496732       35.4952594395
  H        40.0477472371       -0.3014956247       29.8285089054
  H        39.4744009423       -1.0999129321       38.2970853189
  H        39.7003686243        1.9608143069       33.3798159109
  H        38.3350912054        2.7097177650       42.9149107490
  H        40.1672783852       -7.2140181324       27.6560387700
  H        39.3262057334       -8.4590908432       28.1296650083
  H        36.3746670299        8.8108860857       38.3630903051
  H        36.3191126846        8.9948733650       36.7457159909
  H        30.0185859908       -5.5628215584       33.9340137498
  H        30.7662813939       -5.0306760941       35.1992174731
  H        40.0527486776        6.3432513447       28.2680865356
  H        40.2392313705        5.1654901199       29.3076213413
  H        26.3188790344        2.4379548883       33.5655996888
  H        26.9567003829        1.2677330662       32.5850075882
  H        34.8437616443       -0.4761529653       30.3776026963
  H        35.4085219691       -1.9205401850       30.3204701449
  H        32.1281888726       -0.7365995485       36.5094965675
  H        32.2153548161        7.8374666725       35.6711345780
  H        36.3833094420       -4.3081003921       36.4608191434
  H        35.8009106135       -3.0057894253       27.0195432211
  H        29.6468560389        1.0627777092       35.7265485613
  H        30.3796424723       -0.0736862448       34.9872486268
  H        34.2080553179       -1.6517541190       33.8941235220
  H        34.7892184128       -1.0268936396       32.5034482013
  H        40.4571174383        1.1463333103       31.3072396694
  H        41.3150763357        0.6447171125       32.4381290666
  H        29.0302146141        3.5125914806       39.9107396040
  H        29.4942767114        3.7146588314       41.3643342219
  H        34.1251469671       -6.7644224456       32.3597234955
  H        34.9573376250       -5.7589122053       31.4562547144
  H        33.2640421290        1.5245710041       44.0580012930
  H        33.7818469477        0.4859733911       43.0514196147
  H        36.8202237275        2.6216949827       40.6892899500
  H        37.5629460022        1.5716175932       39.7565464153
  O        43.2148795352       -0.0657706540       47.2608115314
  O        29.3931403596       -2.3127050474       37.1382703890
  O        36.7421394001       -0.0850568436       35.2551704595
  O        27.9418039798        6.7625669820       34.5652823004
  O        37.6824386850        9.4188411176       32.6499273931
  O        33.3157767459        2.0968735073       45.8732460219
  O        37.9947466118        4.3590430120       26.5596011803
  O        32.1806541135        2.6590166438       30.4595508567
  O        34.6519583749       -3.4360407942       39.5921540010
  O        42.2960935117        5.9445115835       32.8463853223
  O        32.9588338429        9.9058166780       30.1571894900
  O        31.4277840112       -5.8329707575       36.6713226841
  O        26.0611355814        2.4975997942       35.3525522609
  O        32.0315739547       17.3230758991       30.8109527821
  O        33.8262212319       -2.9486569123       35.0197457790
  O        39.4565742253       -0.3047293545       38.9351833981
  O        29.4860301127        2.8711814553       43.0093261113
  O        39.2841684893       -7.6225464924       27.6258717322
  O        35.8790750863        8.6524438766       37.5233183955
  O        30.3561765502       -4.7613221190       34.3375393190
  O        40.7122956635        5.8329584151       28.7539906577
  O        26.7146898553        2.2424248102       32.6562034449
  O        35.6550678914       -0.9970257750       30.5752601464
  O        31.5857698238       -1.3110030844       35.8999173853
  O        35.5469684967       -3.9047142681       26.8213720396
  O        29.5662120076        0.4654683537       34.9688142611
  O        34.7646878849       -0.9548142118       33.4898422438
  O        40.4865095593        0.4002274341       31.9438888006
  O        29.6764353975        4.0129403920       40.4492636315
  O        34.1288030185       -5.8788293039       31.8893186215
  O        33.1179190063        1.2351417819       43.1114531311
  O        37.1976975684        2.5052260376       39.7948780625
      96
 i =        2, time =        1.000, E =      -550.7083436773
  H        42.8881984562       -0.0452408158       38.3365038560
  H        34.1884212682       -0.6171476327       37.3604346169
  H        30.1044446789       -2.0318132492       36.4708391233
  H        28.6927012285       -2.6795070315       36.5968987463
  H        36.2736495856       -0.5030136703       34.5149919280
  H        37.6831177157       -0.0542568381       35.0017436360
  H        27.7429537437        7.5099406102       33.9396496042
  H        28.7933663763        6.5039219876       34.1833855033
  H        37.1510265025        9.0182251657       31.9311247826
  H        38.5976865892        9.6066714488       32.3509305253
  H        34.2860102066        2.2056761167       45.9833789406
  H        33.2455113481        1.3004173559       46.4863288358
  H        38.7353660227       -5.0515648399       26.0759677648
  H        38.3733495723       -6.2766567480       26.9652440512
  H        32.8662181738        3.2236981650       30.8875328093
  H        31.3090795461        3.0851911078       30.6397971481
  H        33.7248963834       -3.1536259972       39.6813338897
  H        34.6640745676       -3.6735223132       38.6392924923
  H        42.7325441950        5.1314852958       32.5803917264
  H        41.5488435888        5.5717802015       33.4126908022
  H        32.4356581765        9.1105778658       30.5226120967
  H        32.6453321430       10.7723726114       30.4860463284
  H        31.4717916947        4.6730648060       37.3860015644
  H        32.3133359057       -6.2148231174       36.4849966383
  H        26.6583564432        3.1890683222       35.7010298865
  H        26.5263470674        1.6083645334       35.4929558567
  H        32.0266907244       16.9209079717       31.6814943848
  H        31.4174500811        7.0224702656       30.2461711985
  H        33.5466406816       -3.5653620869       34.2736687861
  H        34.6547258474       -3.2492887237       35.4910887047
  H        40.0392865072       -0.2992395456       29.8260677827
  H        39.4696814545       -1.1049211450       38.2921580310
  H        39.6955199701        1.9659966063       33.3706429385
  H        38.3397093426        2.7223997177       42.9098517854
  H        40.1612543189       -7.2080810744       27.6543976380
  H        39.3362961423       -8.4614888692       28.1263182589
  H        36.3651330454        8.8104104776       38.3662362548
  H        36.3201687881        8.9786948252       36.7370820297
  H        30.0308814840       -5.5647071167       33.9387908343
  H        30.7606259341       -5.0233787593       35.1983695381
  H        40.0450092792        6.3524122074       28.2748108404
  H        40.2387480362        5.1558627092       29.3133728387
  H        26.3079849907        2.4348379642       33.5644259007
  H        26.9493888318        1.2653674707       32.5786228838
  H        34.8485568024       -0.4814014038       30.3713784605
  H        35.4205445055       -1.9130731376       30.3286992678
  H        32.1354830104       -0.7396913795       36.5082565718
  H        32.2128258383        7.8317600445       35.6742001304
  H        36.3968036687       -4.3160758020       36.4672708215
  H        35.7863217821       -3.0072687793       27.0139159263
  H        29.6484880280        1.0611909979       35.7374274716
  H        30.3800434241       -0.0833498846       34.9858998156
  H        34.2008327305       -1.6460232716       33.9016161819
  H        34.7940882293       -1.0289732343       32.5055683490
  H        40.4490118331        1.1442377168       31.3083448400
  H        41.2999270570        0.6379708513       32.4309680382
  H        29.0392241729        3.5251527326       39.9132743889
  H        29.4939367793        3.7042495187       41.3551895936
  H        34.1192487103       -6.7758116259       32.3606325704
  H        34.9637170267       -5.7480711053       31.4535998558
  H        33.2735683343        1.5225481897       44.0588511948
  H        33.7650390748        0.4794430330       43.0419123766
  H        36.8204700786        2.6209402513       40.6938347940
  H        37.5693577012        1.5801223157       39.7484298270
  O        43.2170799785       -0.0679885732       47.2634459245
  O        29.3920903905       -2.3121853097       37.1362169993
  O        36.7426760790       -0.0865908410       35.2538014881
  O        27.9412138149        6.7632813617       34.5659928839
  O        37.6849855515        9.4168986566       32.6520094684
  O        33.3143749162        2.0996766979       45.8740663887
  O        37.9940188534        4.3568023964       26.5623021419
  O        32.1782710751        2.6570291566       30.4613612111
  O        34.6497434976       -3.4347049245       39.5951375229
  O        42.2983222170        5.9430910265       32.8471413759
  O        32.9577232107        9.9067168206       30.1556232559
  O        31.4273975836       -5.8319724374       36.6687856352
  O        26.0643389320        2.4976013267       35.3547190394
  O        32.0295618641       17.3209976233       30.8101170023
  O        33.8268981072       -2.9471230906       35.0173439365
  O        39.4559904300       -0.3035892630       38.9353292885
  O        29.4878671088        2.8736131010       43.0112320170
  O        39.2812496740       -7.6252551176       27.6243998779
  O        35.8781271028        8.6536510811       37.5266107234
  O        30.3546924956       -4.7619789864       34.3395431335
  O        40.7138338559        5.8325488402       28.7522901264
  O        26.7123988831        2.2435877468       32.6546163040
  O        35.6529494658       -0.9971206791       30.5755361009
  O        31.5866285620       -1.3097149963       35.8987788242
  O        35.5443433703       -3.9040082858       26.8213066397
  O        29.5670369518        0.4610821317       34.9706917998
  O        34.7665840292       -0.9522689959       33.4902160729
  O        40.4880350066        0.3981231364       31.9456252317
  O        29.6795589568        4.0121881468       40.4483115787
  O        34.1301136507       -5.8782782304       31.8864817396
  O        33.1198359834        1.2361782460       43.1100693296
  O        37.1954066299        2.5056228377       39.7977860864
      96
 i =        3, time =        1.500, E =      -550.7066928287
  H        42.8896475375       -0.0395647604       38.3526636937
  H        34.1855857578       -0.6156514053       37.3587855744
  H        30.1072012000       -2.0507544208       36.4652439955
  H        28.6821525411       -2.6740037929       36.5910188959
  H        36.2775508278       -0.4900708386       34.5216843341
  H        37.6807416435       -0.0644747551       34.9917588584
  H        27.7377497976        7.5146412260       33.9480859786
  H        28.7841082161        6.5041702670       34.1776188754
  H        37.1465994414        9.0187116465       31.9341235432
  H        38.5902661032        9.6174793567       32.3594479753
  H        34.2769662822        2.1977582359       45.9790427937
  H        33.2442842437        1.3005444863       46.5027897916
  H        38.7386048106       -5.0520685335       26.0798822587
  H        38.3848289373       -6.2739442814       26.9614588577
  H        32.8667564367        3.2280856783       30.8714791913
  H        31.3198297948        3.0842713568       30.6452471129
  H        33.7144422220       -3.1571500301       39.6895042063
  H        34.6659841888       -3.6793495983       38.6348855905
  H        42.7501594065        5.1392982750       32.5745129803
  H        41.5458291183        5.5685279803       33.4065986971
  H        32.4455362695        9.1110245899       30.5177623517
  H        32.6457950413       10.7742419069       30.4881072537
  H        31.4620020397        4.6721616625       37.3814320479
  H        32.3102550669       -6.2097303673       36.4925100167
  H        26.6570095229        3.1987248369       35.7154419004
  H        26.5203158223        1.6203617740       35.4970677811
  H        32.0295856834       16.9193816902       31.6781712738
  H        31.4275451657        7.0059177734       30.2489091117
  H        33.5615141491       -3.5677643051       34.2844505369
  H        34.6559467593       -3.2460557751       35.4823415715
  H        40.0310495672       -0.2982979591       29.8235656819
  H        39.4629614794       -1.1102584672       38.2918948971
  H        39.6887614684        1.9749562611       33.3637004189
  H        38.3522955430        2.7291813325       42.9076270323
  H        40.1589061970       -7.2013969811       27.6525246373
  H        39.3500420142       -8.4640797037       28.1213950492
  H        36.3596355319        8.8102704668       38.3665816151
  H        36.3238752753        8.9674105574       36.7281006841
  H        30.0378240247       -5.5712277953       33.9465481737
  H        30.7554661667       -5.0165514851       35.1976409222
  H        40.0367549072        6.3570504454       28.2784807471
  H        40.2388958953        5.1471562367       29.3161028567
  H        26.3031871115        2.4281005421       33.5619049616
  H        26.9342533613        1.2646654652       32.5722854435
  H        34.8525373094       -0.4890546126       30.3616253534
  H        35.4287641640       -1.9049084489       30.3342734372
  H        32.1443802253       -0.7432551939       36.5061897691
  H        32.2094199812        7.8269625794       35.6772567433
  H        36.4140245149       -4.3305298931       36.4745985983
  H        35.7750409897       -3.0051519226       27.0124176682
  H        29.6504157970        1.0593239877       35.7430554353
  H        30.3807563785       -0.0962333422       34.9830587854
  H        34.1934030314       -1.6331793392       33.9112098458
  H        34.7996779953       -1.0318072308       32.5116625105
  H        40.4409036123        1.1388956870       31.3122611553
  H        41.2896435545        0.6335470059       32.4276155996
  H        29.0468126385        3.5385318926       39.9171649189
  H        29.4934278657        3.6966330334       41.3502236782
  H        34.1155533626       -6.7851495846       32.3597177951
  H        34.9744712178       -5.7400981993       31.4478980867
  H        33.2807025114        1.5201207647       44.0584531164
  H        33.7545313583        0.4759752052       43.0323127761
  H        36.8211844028        2.6190925913       40.6978526224
  H        37.5752177943        1.5901125485       39.7407857816
  O        43.2181997199       -0.0696991635       47.2669039459
  O        29.3902384770       -2.3116208958       37.1347798635
  O        36.7433838103       -0.0888503147       35.2532837211
  O        27.9405123111        6.7649848141       34.5670319750
  O        37.6893049829        9.4157556910       32.6540612080
  O        33.3126571101        2.1033680629       45.8749200813
  O        37.9927099111        4.3542022513       26.5647592183
  O        32.1752422889        2.6551953488       30.4632176409
  O        34.6472216424       -3.4332406186       39.5971450104
  O        42.2996099716        5.9422649573       32.8490386734
  O        32.9568508732        9.9080672727       30.1537999154
  O        31.4268662020       -5.8304549221       36.6667144748
  O        26.0657788976        2.4975053594       35.3555918430
  O        32.0272970995       17.3190744555       30.8087971824
  O        33.8274127120       -2.9461859657       35.0152238055
  O        39.4550013620       -0.3029115341       38.9351280507
  O        29.4902724266        2.8764985408       43.0122582696
  O        39.2782420449       -7.6281850779       27.6224147838
  O        35.8762804442        8.6555685660       37.5323492571
  O        30.3537701247       -4.7630353198       34.3415208176
  O        40.7149891291        5.8314497976       28.7506412715
  O        26.7108618164        2.2454123814       32.6527621072
  O        35.6521313487       -0.9971414835       30.5758843708
  O        31.5884933985       -1.3080633812       35.8974643299
  O        35.5415071947       -3.9034893662       26.8212021814
  O        29.5683222202        0.4580350506       34.9730769497
  O        34.7674489246       -0.9497140914       33.4903838095
  O        40.4899924259        0.3960791912       31.9486254478
  O        29.6814028632        4.0105718774       40.4475543919
  O        34.1314499088       -5.8779448263       31.8849158339
  O        33.1233041737        1.2370349849       43.1084393157
  O        37.1926137972        2.5063291883       39.7993048699
      96
 i =        4, time =        2.000, E =      -550.7032834675
  H        42.8917500433       -0.0309630556       38.3733344156
  H        34.1834199078       -0.6138944172       37.3568764357
  H        30.1087462676       -2.0597885202       36.4594496119
  H        28.6715647033       -2.6664715533       36.5798620815
  H        36.2791300324       -0.4759052505       34.5252362418
  H        37.6798684406       -0.0783747568       34.9780843252
  H        27.7343884246        7.5170102079       33.9577612897
  H        28.7799487734        6.5027487414       34.1744905501
  H        37.1414824050        9.0203866304       31.9413076317
  H        38.5768630807        9.6228407078       32.3709733127
  H        34.2698836656        2.1877453087       45.9723199822
  H        33.2380304813        1.3024160816       46.5155349368
  H        38.7406177809       -5.0549488877       26.0924518070
  H        38.3903388237       -6.2682868920       26.9608292423
  H        32.8668594624        3.2301517090       30.8569567907
  H        31.3262003155        3.0827322857       30.6515475051
  H        33.7106443150       -3.1592781045       39.7035995267
  H        34.6700683572       -3.6871538841       38.6275026677
  H        42.7620242329        5.1526394526       32.5675287982
  H        41.5437231177        5.5673531969       33.3886002488
  H        32.4606593433        9.1154091106       30.5137106204
  H        32.6460485057       10.7769354604       30.4935024867
  H        31.4497530992        4.6725163120       37.3747296189
  H        32.3015688509       -6.2052187826       36.4974551506
  H        26.6539117443        3.2063542881       35.7258236855
  H        26.5085344999        1.6372743495       35.5061693734
  H        32.0404262302       16.9144761580       31.6744696492
  H        31.4356750128        6.9868691510       30.2507828749
  H        33.5692200196       -3.5714468280       34.2965408190
  H        34.6554228369       -3.2440062502       35.4665914136
  H        40.0198898321       -0.2993004824       29.8208762327
  H        39.4514362141       -1.1162011232       38.2951255993
  H        39.6771161628        1.9889553634       33.3592525721
  H        38.3733216031        2.7317262419       42.9065157818
  H        40.1572815422       -7.1922381255       27.6498678983
  H        39.3615755111       -8.4676517236       28.1147011527
  H        36.3566146334        8.8106827642       38.3659514142
  H        36.3315128278        8.9622970031       36.7212646522
  H        30.0428508442       -5.5920590679       33.9641658579
  H        30.7500816326       -5.0092171573       35.1973655753
  H        40.0292809465        6.3593024049       28.2802474267
  H        40.2404036359        5.1396202425       29.3171016458
  H        26.3021262607        2.4111179767       33.5580412535
  H        26.9169464933        1.2668025578       32.5626411174
  H        34.8559782746       -0.5004758931       30.3449546162
  H        35.4326091435       -1.8957765202       30.3383495189
  H        32.1561285263       -0.7482056026       36.5016207403
  H        32.2025721221        7.8222340013       35.6836038738
  H        36.4218323787       -4.3448241101       36.4853393214
  H        35.7711908159       -2.9954365477       27.0129014305
  H        29.6529378751        1.0555490622       35.7451274118
  H        30.3811664336       -0.1081946175       34.9774001044
  H        34.1856654038       -1.6149012885       33.9233952484
  H        34.8082185610       -1.0360072816       32.5239236675
  H        40.4331966648        1.1288529164       31.3195790956
  H        41.2873711198        0.6304617177       32.4262519207
  H        29.0523933256        3.5461871150       39.9272396405
  H        29.4927129311        3.6907395066       41.3479964539
  H        34.1130036186       -6.7912511072       32.3563517728
  H        34.9872979856       -5.7352573359       31.4375156916
  H        33.2853854651        1.5153922003       44.0542780060
  H        33.7505793378        0.4734150320       43.0238256919
  H        36.8225906947        2.6153424752       40.7021466881
  H        37.5824709986        1.6003834670       39.7334553101
  O        43.2190321465       -0.0712404641       47.2697371486
  O        29.3855438760       -2.3108460531       37.1337665399
  O        36.7447834241       -0.0925877277       35.2530219202
  O        27.9392543500        6.7675531629       34.5684348947
  O        37.6924398236        9.4150351460       32.6560148745
  O        33.3101935602        2.1060207924       45.8760519693
  O        37.9905791499        4.3508613630       26.5664059643
  O        32.1722537323        2.6534876110       30.4651922573