#     Step Nr.          Time[fs]        Kin.[a.u.]          Temp[K]            Pot.[a.u.]        Cons Qty[a.u.]        UsedTime[s]
         0            0.000000         0.135894380       298.000000000      -550.711286494      -550.439497734         0.000000000
         1            0.500000         0.114566886       251.231375007      -550.709994526      -550.439496637         3.875902060
         2            1.000000         0.111449126       244.394502778      -550.708343677      -550.439488005         3.298572155
         3            1.500000         0.134128181       294.126938466      -550.706692829      -550.439420681         2.548162217
         4            2.000000         0.186852247       409.744461818      -550.703283467      -550.439472284         5.696356183
         5            2.500000         0.209952425       460.400369487      -550.694562680      -550.439265103         0.295800774
         6            3.000000         0.159249047       349.213970827      -550.686523765      -550.438918053         0.300811559
         7            3.500000         0.110629058       242.596194300      -550.686523765      -550.438918027         0.292187965
         8            4.000000         0.093597963       205.249054527      -550.691189207      -550.439085542         0.291012492
         9            4.500000         0.089339696       195.911187443      -550.696572409      -550.439307076         0.293325157
        10            5.000000         0.094668733       207.597124870      -550.702493931      -550.439469584         0.294407307
        11            5.500000         0.122842743       269.379332076      -550.706549277      -550.439432214         0.295956027
        12            6.000000         0.167949745       368.293551739      -550.708236013      -550.439637069         0.292481349
        13            6.500000         0.183968624       403.421024427      -550.705687964      -550.439473641         0.291468191
        14            7.000000         0.174547545       382.761733501      -550.699443450      -550.439358512         0.297818523
        15            7.500000         0.139790878       306.544551519      -550.689789575      -550.439116952         0.291926169
        16            8.000000         0.112866802       247.503295174      -550.680171587      -550.439021208         0.290870820
        17            8.500000         0.111978651       245.555687608      -550.671737904      -550.438527812         0.293756715
        18            9.000000         0.117093217       256.771314096      -550.669153967      -550.438417034         0.297093868
        19            9.500000         0.114825967       251.799510036      -550.671737904      -550.438492634         0.292686485
        20           10.000000         0.130960335       287.180234322      -550.677192882      -550.438816038         0.293821066
        21           10.500000         0.159974323       350.804413600      -550.680745795      -550.438963539         0.308073798
        22           11.000000         0.191242324       419.371372060      -550.679561491      -550.438858107         0.295653960
        23           11.500000         0.157732465       345.888289665      -550.675757361      -550.438887859         0.299516635
        24           12.000000         0.118107028       258.994479754      -550.674573057      -550.438915247         0.296113240
        25           12.500000         0.109774693       240.722673988      -550.676475122      -550.438721435         0.292531431
        26           13.000000         0.113904536       249.778921173      -550.682396644      -550.438886954         0.296757612
        27           13.500000         0.118667086       260.222620407      -550.688461718      -550.438917221         0.301887740
        28           14.000000         0.129828373       284.697977725      -550.692840056      -550.438953927         0.299142718
        29           14.500000         0.139064924       304.952620053      -550.696787737      -550.439085305         0.295988247
        30           15.000000         0.160144442       351.177464237      -550.698223258      -550.438956151         0.293120032
        31           15.500000         0.164913279       361.634948697      -550.695172777      -550.438948264         0.297418934
        32           16.000000         0.138688468       304.127097587      -550.690507335      -550.438767217         0.299311911
        33           16.500000         0.126912534       278.303893730      -550.688784710      -550.438596918         0.292617973
        34           17.000000         0.123428674       270.664208367      -550.688784710      -550.438475659         0.296136120
        35           17.500000         0.130723924       286.661812858      -550.688138726      -550.438477224         0.295409056
        36           18.000000         0.125346095       274.868882396      -550.687349190      -550.438402146         0.297493676
        37           18.500000         0.130951894       287.161724400      -550.686739093      -550.438270932         0.295942977
        38           19.000000         0.158185502       346.881743871      -550.687133862      -550.438147718         0.297260501
        39           19.500000         0.154355821       338.483715011      -550.685698341      -550.438198345         0.294303296
        40           20.000000         0.156108227       342.326531473      -550.682576084      -550.438081664         0.294894046
        41           20.500000         0.146263139       320.737438608      -550.681750660      -550.437949889         0.308112009
        42           21.000000         0.133128269       291.934250903      -550.682181316      -550.438114453         0.292511481
        43           21.500000         0.123246347       270.264387705      -550.683580948      -550.438250466         0.294892926
        44           22.000000         0.106107139       232.680168864      -550.683616836      -550.438285905         0.295986997
        45           22.500000         0.116265691       254.956649927      -550.682791412      -550.438284432         0.296053759
        46           23.000000         0.139953630       306.901445485      -550.680243363      -550.438124603         0.296195381
        47           23.500000         0.147662751       323.806620117      -550.675075489      -550.438134522         0.292715425
        48           24.000000         0.160649682       352.285393911      -550.671737904      -550.438076685         0.296634160
        49           24.500000         0.150489153       330.004577642      -550.669979391      -550.438198741         0.295736261
        50           25.000000         0.141558815       310.421424156      -550.669261631      -550.438313032         0.290105506
        51           25.500000         0.137507907       301.538270328      -550.669871727      -550.438436333         0.293247305
        52           26.000000         0.121470994       266.371251692      -550.670733040      -550.438300054         0.292882358
        53           26.500000         0.115265717       252.763828781      -550.672706880      -550.438392161         0.293159563
        54           27.000000         0.139432343       305.758325767      -550.676152130      -550.438399475         0.297674099
        55           27.500000         0.136553280       299.444888745      -550.677479986      -550.438297212         0.293169654
        56           28.000000         0.131921084       289.287041509      -550.676295682      -550.438095420         0.290887710
        57           28.500000         0.136504107       299.337057935      -550.674680721      -550.438123673         0.289646826
        58           29.000000         0.156567307       343.333238075      -550.673065760      -550.437941172         0.294846576
        59           29.500000         0.147505905       323.462674114      -550.672850432      -550.437896838         0.292183195
        60           30.000000         0.128864907       282.585213195      -550.674142401      -550.437905365         0.291112794
        61           30.500000         0.143652530       315.012687643      -550.676188018      -550.438110733         0.305462198
        62           31.000000         0.146890620       322.113429698      -550.676618674      -550.437731454         0.293564841
        63           31.500000         0.132326908       290.176963585      -550.675577921      -550.437824691         0.291353668
        64           32.000000         0.125832642       275.935820256      -550.675865025      -550.437813579         0.291895490
        65           32.500000         0.125372938       274.927744859      -550.676511010      -550.437971989         0.299099956
        66           33.000000         0.145724738       319.556789841      -550.678413074      -550.437951703         0.295511638
        67           33.500000         0.146964753       322.275993951      -550.680745795      -550.437946148         0.287984625
        68           34.000000         0.128228004       281.188560690      -550.682468420      -550.437937453         0.288286881
        69           34.500000         0.133737587       293.270412459      -550.683796276      -550.438044751         0.294991908
        70           35.000000         0.142147400       311.712120394      -550.682288980      -550.437812184         0.291387069
        71           35.500000         0.142085813       311.577066776      -550.677731202      -550.437953304         0.291430581
        72           36.000000         0.134348270       294.609567268      -550.672348000      -550.437632700         0.291632594
        73           36.500000         0.121123716       265.609714575      -550.671199584      -550.437741393         0.293960449
        74           37.000000         0.121599722       266.653538294      -550.674967825      -550.437733424         0.294866876
        75           37.500000         0.125086023       274.298574864      -550.682288980      -550.438005234         0.291553182
        76           38.000000         0.134715301       295.414421027      -550.688569382      -550.438431648         0.292069532
        77           38.500000         0.143196615       314.012922434      -550.692301735      -550.438356213         0.294613521
        78           39.000000         0.142582581       312.666418794      -550.692947720      -550.438229071         0.298358373
        79           39.500000         0.122720226       269.110668784      -550.691081543      -550.438340958         0.293668613
        80           40.000000         0.120659990       264.592817767      -550.690112567      -550.438328023         0.295008528
        81           40.500000         0.122033018       267.603703335      -550.689753687      -550.438374217         0.306628841
        82           41.000000         0.121018783       265.379608632      -550.688282278      -550.438242008         0.297822522
        83           41.500000         0.138888728       304.566244213      -550.684837029      -550.438041987         0.291793707
        84           42.000000         0.143629545       314.962284683      -550.678736067      -550.437963035         0.293906028
        85           42.500000         0.141530563       310.359469205      -550.672527440      -550.437748357         0.292677934
        86           43.000000         0.139344885       305.566541111      -550.669871727      -550.437679519         0.295578640
        87           43.500000         0.128968304       282.811950454      -550.668292655      -550.437603133         0.294740643
        88           44.000000         0.118971651       260.890495118      -550.668472095      -550.437682570         0.294451768
        89           44.500000         0.132943905       291.529963839      -550.673029872      -550.437896387         0.296404455
        90           45.000000         0.134677763       295.332105348      -550.678807843      -550.438021764         0.295325245
        91           45.500000         0.132386687       290.308051305      -550.684621701      -550.438154298         0.293381098
        92           46.000000         0.129828891       284.699113151      -550.687564518      -550.438132992         0.296896144
        93           46.500000         0.128845847       282.543417404      -550.685411237      -550.438103359         0.295759603
        94           47.000000         0.130468463       286.101618236      -550.681642996      -550.438233587         0.295337124
        95           47.500000         0.117091363       256.767248907      -550.679202611      -550.437996043         0.294982338
        96           48.000000         0.126525317       277.454774770      -550.679453827      -550.438010533         0.292822047
        97           48.500000         0.147757910       324.015290616      -550.681894212      -550.438115826         0.292263327
        98           49.000000         0.144233290       316.286223934      -550.681355892      -550.437963788         0.292300907
        99           49.500000         0.141426440       310.131141934      -550.679238499      -550.437886771         0.293108622
       100           50.000000         0.125654054       275.544199365      -550.678484850      -550.437922629         0.296323914
