    25.67239402977320        -2.366984712848285         4.369925332058540     
    27.08068789292223        -2.827595229466635         5.515186843389468     
    24.23498696660418        -1.938762187074879         5.491336981938217     
    34.10405343733186        -16.18905503942131         5.930891674663767     
    33.46480229664763        -17.94618008649844         5.826262343272447     
    35.87116507575390        -16.26189098779835         5.315189543320848     
    30.06666118976282        -28.11775295526213         6.524466765148420     
    30.90970961102714        -26.71587236737167         7.436101464663894     
    31.45272589250051        -29.16563680423719         5.826010070547223     
    50.47891104647359        -13.89848587801521         2.933858546908452     
    50.61036437334112        -15.74989465991656         3.183023724674375     
    50.63241309962054        -13.62993526228361         1.086862224266977     
    55.96112903493086         8.579549488348128        -35.95297811984007     
    57.65645615262972         9.137446276326223        -35.38579653256281     
    56.18990259138437         7.999776268743865        -37.71893490888798     
    39.29876459117735        -25.13610920401637         13.15209037152848     
    40.25037313695087        -26.56832724439900         13.89389261810554     
    38.97648938381300        -23.95980659700703         14.57319159413789     
    66.35403334939969         2.933530867975632         10.41357250468086     
    64.95171910599538         4.172144213046888         10.49375608842741     
    67.26581936620312         3.103830971121850         12.04044733411725     
    33.92390418219941        -7.643153195668851         41.15707610114013     
    33.73162780913483        -9.274678693432447         42.05609337500578     
    35.24928507879235        -6.708766550987191         42.09375364341199     
    55.19134429118049        -12.03220150280991        -19.48554143749181     
    55.99609171415020        -13.44473190053011        -18.55590857889467     
    53.34823780204854        -12.34370513155583        -19.37151681293324     
    31.27716979342194        -16.26549587822541        -6.899277602724506     
    29.90935718407572        -15.00633303521788        -6.674165840346913     
    31.64247618401620        -16.28463941978804        -8.735921958744870     
    49.33390016890957        -8.358713920038912         9.683628244014148     
    48.74266866158403        -9.513087428152444         8.332723078424689     
    50.84095253199568        -7.496892956787716         8.981392222937638     
    32.53979014707214        -25.10891049151331         20.15470567978423     
    31.63544712208008        -26.68176442503511         20.61878701456174     
    34.01551623572208        -25.02230503094060         21.30440535780741     
    69.44174702329181         5.061375604827020        0.8698429703785727     
    71.10323517789584         4.349477448481490         1.359471199737021     
    68.60239536295174         5.525257098093968         2.478376612039727     
    35.54721483458906         22.24977954147428         5.384220692125044     
    36.67235461869730         23.54271541842849         6.138843096691257     
    35.46505742159652         20.86325111509882         6.640352400384872     
    41.51219419172514        -6.385291422194718        -8.959181572993952     
    42.33305097505166        -7.687028568002281        -7.892058200849366     
    42.49636823634800        -6.350498176103665        -10.55206215953319     
    39.78811073963107        -29.66435482536796         1.232285413564526     
    41.34218049453084        -28.93850984308600         1.984012793080919     
    39.72749112883033        -31.43973577164343         1.825096909287521     
    29.42914730610279        -33.90049872006165        -26.11170734501154     
    29.14606756119882        -34.34026826564504        -27.90991377479548     
    27.82121802938005        -33.14232323447894        -25.52280077002651     
    14.74098324670808         1.639209986411112        -14.56428688977549     
    14.76790087126236         3.306886960997161        -13.71269621676049     
    15.58717465857239        0.4595000866381221        -13.38135732821484     
    51.64189018909846        -18.54915769508092         2.116448104794778     
    52.59411354810670        -19.28435776739228         3.551658638052826     
    52.31261579241891        -19.39402067600270        0.5856276259029583     
    48.48804587697946        -7.240517840910031         37.91625231838339     
    48.68025658994988        -8.065141035062931         36.24588412044611     
    50.23019298822163        -6.870650921222539         38.49521683680463     
    47.03912063882818        -14.40113444266463        -3.989500751201454     
    45.58948279856469        -13.33088390197298        -4.499590545533844     
    47.90361538263441        -13.45507100969435        -2.623964004448667     
    36.46711426630193        -1.711978967977459        0.5889932805146715     
    37.62131677020842        -3.151495327168415        0.9094411234505031     
    35.92304627146815        -1.120590424890093         2.280539084495327     
    45.73692557344744        -5.849961227912289        -2.535083205568352     
    47.29259791830726        -4.815767958509736        -2.403153520388313     
    44.34512707766616        -4.627524006467965        -2.810077190801854     
    59.33216510868160        -4.160086191303102         9.734441050674040     
    60.86375030698964        -3.584029540458957         10.64520074398134     
    59.14747703912634        -5.973710643250421         10.16308337297121     
    27.18499557658363         8.269245961128476        -12.31848113024244     
    28.99430572655689         8.642290786412373        -12.62558382440928     
    27.12742614332890         6.474912861796310        -11.78544060820762     
    63.64745492285364        -16.57449984539047         3.069369743403410     
    63.12117446155609        -18.02844712866311         2.012892609509902     
    65.15842083339506        -17.15926446591315         4.008576875150351     
    44.30073558025980         5.760441802426650         5.975876297438446     
    44.31485191277015         4.191024709362897         6.997545755719995     
    44.23797590378168         7.163491244083385         7.214662480185545     
    60.47927326243479        -12.19255801482751         11.68828691464498     
    59.51722812138292        -10.66647903496100         12.19090981641042     
    62.05887206032075        -11.55471374895355         10.91040516305480     
    30.49027813724492         23.30993810203626        -30.78804416226559     
    31.77483406664777         22.87114983905819        -29.49790512997752     
    29.84403148896410         21.67283617557734        -31.42784108064870     
    44.64647275697057         17.12810199537667         3.426712090103202     
    44.87433913629530         15.45640599965390         4.239477242636702     
    46.28375378478714         18.01304643354198         3.634707027116979     
    62.34447235805467         11.59063043072392        -3.297833150047258     
    62.58190432771233         13.26577147676903        -4.100706851585788     
    60.63384985312165         11.63817040272376        -2.537183448725400     
    45.84369642489688        -1.475698901127199        -14.41118052255899     
    46.78113375706646        -1.635711867245951        -12.79789684597588     
    44.56431232197234       -0.1403060487921557        -14.11625602349451     
    47.10204037345617        -10.85473497439660         5.685865156130495     
    46.35810483076158        -12.28944219600639         6.632043070635179     
    48.25287793465716        -11.62830426492557         4.427198748481660     
    49.75971504932434        -3.052600085228206       -0.8698472374336117     
    51.21930246286348        -4.197792003346756       -0.6144694880499156     
    49.40950094300543        -2.305648347531717        0.8113698532478207     
    30.11010032724355        -6.174934282114529         14.85760042912704     
    31.42416486946601        -6.771048448251515         16.05131730674769     
    30.90988201866258        -6.228885553248502         13.16511226970016     
    47.42562524485200        -10.08700996875946         22.85894518423801     
    45.91825603464896        -11.13730767323766         23.22197492769210     
    46.79955306942860        -8.323866082859430         22.77872672082515     
    26.02822763679039        -42.06464172860340        -4.759843090986498     
    26.71178902135382        -41.60436173778476        -6.441498211490879     
    25.08312505499093        -40.55768838171323        -4.174223302739564     
    68.67940376785081        -32.90367521903651        -6.214917957495745     
    70.14992032677314        -32.58358271244635        -7.329457781312666     
    68.79928564239819        -31.62772861071338        -4.849390170675982     
    47.70207462133811        -25.43256863891206         13.94204770040266     
    47.92276922656898        -27.27635841077126         14.18455722526023     
    47.17873244707073        -24.76718331027730         15.61251260902610     
    41.10882108397215        -10.77401223736760         32.37886429764696     
    42.49659432338520        -12.02961537374730         32.44686362962195     
    41.94357823271011        -9.100061752711495         32.46913064034609     
    39.03301817309759        -11.07705945426279         3.585577477072143     
    39.03015057912733        -10.89690377541125         5.449608980203374     
    39.65993663100183        -12.80975938416544         3.251209555274205     
    51.15348390998172        -20.01958180906493        -9.904926351460103     
    52.58774405317959        -20.73170821592432        -8.933920609553924     
    49.97638029166445        -21.44983559221527        -10.18038772751679     
    54.08150432649118        -5.732963393531204       -0.7496015539076739     
    54.56482673973116        -7.408535521133103        -1.432196057087596     
    54.41519367928677        -5.827082950235826         1.090743659137606     
    62.49168618848007        -17.25588247101030        -34.57321766360473     
    63.77246033235756        -17.26344129304160        -33.20696803490404     
    61.66333073874699        -15.57929656569070        -34.47339461764153     
    78.17838017108890         2.098731757454342        -17.74039489729946     
    79.08293852752838        0.5747444666947023        -18.34563400284582     
    77.25826405191776         1.556630214696607        -16.20202246003415     
    50.93602649770700        -35.86469255745126        -7.270023763477056     
    49.16791385011665        -35.60911059140746        -6.708300335276605     
    50.86919575167109        -35.88092806344756        -9.141479778056812     
    55.36823859550351        -1.260429696897597        -12.96442249893640     
    54.96696741359263       -0.5646321379784595        -11.27270002636138     
    57.22713959131011        -1.486621819377531        -12.98447216628956     
    44.78816682178567        -19.61713705119182        -8.236790082496885     
    46.30264487006601        -18.66152978595357        -7.688840485024946     
    43.86030013889324        -20.02965261967503        -6.663267934228793     
    61.75412653712682        -21.00220996732316        -6.670627850336306     
    60.31668933185430        -21.13221649526373        -5.477333976450162     
    61.80894438532117        -19.20500641499456        -7.194204122283455     
    41.65557716877273        -1.813636334051569        -4.167469515096605     
    40.43575189722117       -0.4355377929962698        -4.513803830434251     
    43.34522690955615        -1.086338331557208        -4.518467436654797     
    66.71163532368962        -18.55236519838926        -3.645279709342771     
    65.23797425421587        -19.44314222320017        -2.909129655045112     
    67.96588404370519        -18.43036354509119        -2.259980663043909     
    44.30184945155864        -6.781037185635832         9.715002757625969     
    44.71839650850808        -5.090028270669785         9.026486202684394     
    45.94395015390124        -7.659516499645285         9.912124588006566     
    56.75371471944150         16.04698748447997        -19.57162125583699     
    56.47256155598776         14.27025419028741        -19.05080523709809     
    58.59399164538611         16.19066829233931        -19.88755544898490     
    53.23917334505559        -20.91337622419665        -2.047633632390009     
    53.89714401475210        -22.59685049522406        -2.537599623270053     
    52.03890980910135        -20.43158476235869        -3.402005167190064     
    68.90847754205572        -13.89240836449477         9.402239517024229     
    68.44312444322985        -13.75815269804578         11.21124462566643     
    70.76621123261108        -14.12775082253262         9.379504495034059     
    57.60706244330054        -11.09445122781017        -24.50903912136308     
    55.90613663453525        -11.40991080611530        -25.22626601297434     
    57.58867388364217        -11.88447518026307        -22.81121648430181     
    66.81802755327116        -12.81180757119123       -0.2041359843480844     
    66.76320995435391        -14.64268290956178        0.1856950373378523     
    65.08396050970258        -12.36463373922321       -0.7519724625309061     
    67.68459560977900        -13.57270868302949         14.33603856716764     
    66.46884209070579        -14.73701846815766         15.15665052173641     
    67.87828660186911        -12.13516028723618         15.52052852142654     
    46.79874528117763       -0.1604440554454354        -4.753214411994324     
    47.42301060446297         1.564879973575309        -5.128217786801334     
    47.73947272247074       -0.7132254395563447        -3.231195260028285     
    58.03964675546440         4.178851191766856        -3.792094067499121     
    57.24542596815436         5.377657558157174        -4.991741665644541     
    56.65065616325004         3.583836798503606        -2.685865916073428     
    62.42345615147088        -20.06813986841989        -1.120555754119439     
    62.31710122742947        -21.90918671850363       -0.7944992972429107     
    60.84942970591070        -19.63024006806468        -2.035849198187872     
    64.00173538130569         7.977945490172115        -6.528684403542245     
    64.85622885778267         7.096674110231567        -5.114372055537133     
    63.01044846816333         9.354263814817408        -5.734848157619206     
    61.66987209508374        -6.348372893067891         19.77812829822692     
    62.70662785255342        -5.065239070581883         18.89168439499601     
    62.22877254121884        -6.296109583759069         21.56473864388395     
    59.89746787095690        -7.384339021766809         13.40395374103771     
    58.88187056423167        -7.006948600480639         14.93144061439676     
    61.65400930941395        -6.902486946284453         13.83922199247538     
    23.40614789474862         0.000000000000000         0.000000000000000     
    0.000000000000000         23.40614789474862         0.000000000000000     
    0.000000000000000         0.000000000000000         23.40614789474862     
    23.40614789474862         0.000000000000000         0.000000000000000     
    0.000000000000000         23.40614789474862         0.000000000000000     
    0.000000000000000         0.000000000000000         23.40614789474862     
  -1.8735763128403640E-004  -1.0172915076849978E-004  -5.8303253537344348E-005
  -1.0705441678941392E-004   7.5311904764962403E-004   1.8676002970663586E-004
  -2.9648539863636172E-004   1.3389073462417465E-004  -2.8815530300824687E-004
   2.7866965345932311E-004  -2.3585557972968640E-004   8.4677627715368260E-005
   5.1203454745851351E-004  -2.8926474009338961E-004  -4.4416261746663137E-004
   1.6193594907406390E-004   2.5221304011586665E-004  -3.0809416257773274E-004
   6.9672369273070789E-005  -1.7425596403770260E-005  -1.0507628729714369E-004
   2.3504742671012973E-004   1.3071887038280612E-004  -4.8582093585514023E-004
  -5.5507121016819996E-005  -2.4922016922612311E-004  -5.7330972619736649E-006
  -5.4907467031090409E-005  -1.8870187937387154E-004   1.1444031345222836E-004
   3.9454966362825639E-004  -1.9005474502361789E-004  -1.3273444429837631E-004
   2.0305211060587030E-005   1.0691863484424300E-004   1.6367396406170478E-004
   6.5680636217428052E-007  -4.1488758418601464E-004  -2.3807758145030862E-004
  -1.8654909068289315E-004   3.8560019985856240E-004  -4.6589585443201553E-004
   1.2095086169057081E-004  -7.0589681522222723E-004  -1.2695399174123201E-004
   1.8021617455152716E-004   2.2346564881085937E-004  -7.7698097717357300E-005
   1.3602378567853219E-003   5.9074770262388885E-004  -8.8234749907222589E-004
   1.3795503191065213E-003   3.4628092242991384E-004   9.2625964880021510E-005
  -7.8011026617241450E-005  -4.0004536265380803E-004  -9.7748450032444723E-005
   2.6504085678208278E-004  -5.5689912970693323E-005   5.8248164624803227E-004
   1.1513754632326587E-003  -1.5525106204833699E-004  -8.1238603879991604E-004
  -3.5851509331039089E-006  -1.1164689004397690E-004   2.6366650148748390E-004
   5.1546077952698743E-004   1.3177145802053660E-004   8.1642952940657771E-004
  -5.3264601800753111E-004   7.6160505733133714E-004   1.4116138576101016E-004
   4.5806143706811104E-006  -9.4925840811595705E-005   3.0156759273178957E-005
  -8.7509155680153334E-004  -6.6531359006678858E-004  -7.5020376621860949E-005
  -1.8459855017133982E-004   9.7678838432552642E-004  -9.9942118267953788E-005
   1.8379529476465958E-005  -5.2758611385352445E-005   2.0348940571582457E-004
  -1.3545287293550490E-004  -1.9530567692520416E-004   6.6117945819805897E-005
   9.2923528118963201E-004   7.4788452897777375E-004   3.7631234813008674E-004
   4.8385904153297048E-005   2.1520177323539253E-004   8.1966568814529968E-005
   4.4778939285870365E-004   2.2235316256593634E-007   9.0869207556056537E-005
   3.7594420218086926E-004  -4.5407737255961313E-005   4.6509810814285082E-004
  -6.2830125246256818E-005   3.2213154722949633E-004   2.0421028789408284E-004
   6.1075260315965085E-004  -4.4873473018224708E-004  -1.0957993639627464E-003
   1.0165504669976650E-004  -1.8420258056946636E-004   3.1222713054475282E-005
   8.1383934786770062E-005  -2.2986730311293218E-004  -3.5390054820909613E-005
   1.7299188748722660E-005  -3.1116284707868136E-004   6.3872805550480578E-005
   3.2941652723478043E-004   5.3348873722679500E-004  -1.2610632448298145E-004
   3.4495063724553123E-004  -4.5438052871770775E-004  -2.6807286595877677E-004
   2.7103732726180096E-004  -1.2471826263910157E-004  -7.2269674589836796E-004
   1.7225659811253662E-003  -7.3469671755038721E-004  -4.8738510019843480E-004
  -1.1091950794116172E-004   1.7573619430860809E-004   3.4673775877335977E-004
   2.7206505748901995E-004   5.7464704374345263E-004   5.3875078883236105E-004
  -6.1642950225496769E-004  -3.4310455309965637E-004   2.3071330878802705E-005
  -2.4774246133555811E-004   1.2051609881550744E-004  -3.6976544607463326E-004
   1.5863833685929006E-004  -1.6752493552724905E-004  -9.3176568644027178E-004
  -6.4364022440571622E-004   2.8580735317908506E-004   8.4773268530154073E-005
  -1.1421823705559551E-004  -2.4159845263105288E-004  -2.7217419207708513E-004
  -6.2736585918831933E-004  -5.7300762326751178E-004  -1.1034329573258519E-004
   4.7910955238414497E-004   1.0445535441028273E-003  -3.0800295035519589E-004
   1.2261501694187580E-004   1.8638662327935052E-004   1.3696484064298386E-004
  -6.5606795776677025E-006  -6.4252474925708833E-005   6.3187650332698633E-004
   1.9226967625756473E-004  -1.0414872820258270E-004  -2.0260618534150616E-004
   2.7428950529148093E-004   8.6715754804629448E-005   2.9728902335206037E-006
  -9.6938374619844598E-004  -6.1689984674818854E-004   4.6768274599757529E-004
   2.4394624068745059E-004  -5.6742510025439525E-004   3.5069974366246246E-004
  -6.0383489580797960E-005  -2.1453470996463664E-004  -6.1571184397556813E-005
   8.3547772445652448E-004   1.3576791151753353E-003  -7.3465024869846118E-004
  -4.4088495648467099E-004   7.4676077991836687E-004   4.6926986001662589E-004
  -1.6608673926892834E-004  -6.3722660280711141E-005   3.4145516328588501E-005
  -2.2937035146126523E-004  -2.6073114923780198E-004  -1.9936263115452597E-004
  -6.7823958052883881E-004  -7.5729034648471005E-005   3.6669770295145190E-004
   1.4167504383706380E-004  -1.4860811795298452E-004   1.3675895002793270E-004
   1.0093061704190505E-003   5.0287142815528165E-004  -6.1733740340193606E-005
   6.4310345164029714E-004  -1.4613533951032256E-005   2.5119172868291892E-004
   7.5363435030480215E-005   4.8721322608122586E-006   2.0210828440269384E-004
   8.7556808232042158E-005   1.7791595827608486E-005  -4.2947373095294008E-005
   2.2388892630388875E-004  -1.1735843460568640E-004  -1.0929627680530545E-003
   9.0403227609164833E-005   9.3725164890587713E-005  -9.6056316466835270E-006
  -1.0674957755001229E-004  -6.5512190416102651E-004   7.9558442909923102E-004
  -4.9364398275907213E-004  -4.5333612960509608E-005  -8.4962289744311548E-004
   1.5156394063379219E-004   2.7246613846857519E-004   1.0499442159952430E-004
   8.6072747177904336E-005  -3.1608317340202507E-004  -9.9577467841910074E-004
  -9.4974242322922269E-005   3.2571371032740686E-004   2.5761099353734274E-004
  -4.6441526832481772E-005   7.9577332009837720E-005  -7.8631185463417399E-005
  -3.8502568708299458E-004   5.9834444050879165E-004  -6.2390545740676000E-004
   1.5374738522806490E-004  -4.3762067758705703E-004  -7.2270393487250049E-004
   2.3747649929549137E-004   1.9927822018766673E-004   5.6211437603723544E-005
   1.2009197449203466E-003   3.9195390645131694E-004   3.3887451213235602E-004
   1.2601969688130312E-004   4.0198230427633872E-004  -1.7901789326978765E-004
  -2.4931876666248876E-006   2.9029702391210964E-004  -9.3791612971751448E-005
  -1.0922848847285340E-004   1.2514245290004189E-004   2.0335907635506185E-004
  -2.1864845241153299E-004   5.5742750477930336E-004  -3.1368486864565712E-004
   7.7299959781074712E-005  -1.9159216855162173E-004  -1.5211231632056590E-004
  -2.1078438859214961E-004   2.7809142723315663E-004   2.9446909281087237E-004
   8.4214513384252214E-004  -4.2760588318344750E-004  -3.2075977334361183E-004
  -2.5287282086374399E-004  -3.4476618752872046E-005  -6.0574696513958459E-005
  -3.5489021000656145E-004  -4.3197945129272171E-004  -8.4955729296793123E-004
  -6.9671012416070148E-005  -3.8795765385140379E-004   1.2452254461905969E-006
  -2.9833150805201708E-004   1.4446536801458048E-004   2.7174958841944559E-004
   2.5858148006447568E-004   9.5918841400549244E-005   3.3515516295102286E-004
  -9.2673263538246218E-004   9.8862478681811137E-005  -1.1386094094089281E-003
  -2.5928230685267586E-005   8.7325082781954126E-006   1.0694323130925929E-004
   9.4853936251129571E-005  -4.5719386886367834E-004  -9.4528970788159139E-006
   8.6406085928202874E-004   8.4623243211507475E-004   1.7559294139352533E-004
   2.2581019890606999E-004  -1.1931756188909723E-004  -2.4289896774459478E-004
   7.8525256571210988E-004  -1.5462859441800636E-004   1.4342168271766149E-004
   2.5782264566185886E-004  -2.5690314476851595E-005  -2.7117177854347609E-004
  -1.9131671126416210E-004   9.9234267607141433E-005  -9.0849114029040496E-005
  -6.9939184227288926E-005   2.0715580864055658E-004  -3.0061771875847154E-004
   1.8220473321099453E-004   2.9825252431598965E-004  -1.0146318279689539E-004
   2.5757182309042639E-004  -1.8506320612799612E-004   1.8379650987684338E-004
   6.3955386632098854E-004   7.7897143774685285E-005  -1.0537982291799166E-004
  -3.1747760983436617E-004  -6.5700269854187212E-004  -7.2897913762260389E-005
   5.7373010538412483E-005  -5.9957291553400038E-005   1.1698309794266970E-005
  -7.0166866962999102E-005   3.5044529025458990E-004   6.6948244311105594E-004
   4.9721900588854790E-004   1.0724885405596534E-004   2.5395119434429487E-004
  -1.6751154382899800E-004   8.5825356324321369E-005   1.0839193935129707E-004
   6.9963543062061442E-005   3.6297730046304610E-004   2.8077942235147745E-004
   5.3366365844508685E-004   3.2174226054773660E-004   6.3290755805172472E-004
  -5.3449522191082002E-005  -2.3122441460990788E-004   3.5933824868737081E-005
   5.1273728268757353E-004  -1.3721438598295403E-003   4.5528833961271582E-004
   3.2026081461191369E-004  -6.2939441959082245E-005  -1.5411996847344107E-004
   3.4110619182919826E-004  -1.4421428633583211E-005  -7.0996628244863302E-005
   3.7889055481662002E-004  -2.5099280333694840E-005  -1.8656536246247462E-004
   1.0322389876577396E-003  -2.2097049878374437E-005   1.4858666497326052E-004
  -1.9894815253391052E-004   2.9791847501373834E-004  -1.5898430208372831E-004
  -9.6799239529157095E-004  -5.2537267901837668E-004   3.3413914330110863E-004
   7.9240585180571586E-004  -1.8814115495454971E-004  -3.1297402272253727E-004
  -2.2726347051478131E-004  -3.8779198277643152E-004  -2.1754869807572410E-004
   2.8281511446995605E-004   3.8845519434944787E-004  -2.9178705651794456E-004
  -8.5507498905353465E-004  -7.2460702986606780E-004   3.5072584932647874E-004
  -8.0547068876063772E-005  -2.0073201096329325E-004  -2.1713608863415406E-004
   7.6510755788724847E-005   3.8542485294784612E-004  -1.9242301845908552E-005
   3.3225613529504616E-004  -5.8283110164203151E-004   2.8095370143820535E-006
   1.5773415128345714E-004   3.5997470847362649E-004   5.8796525404155098E-005
  -1.2639163060687508E-003  -1.3759295889934005E-005  -3.0417859855115803E-005
  -3.5639012352704174E-004  -1.7526563145502825E-004   1.2464352635512195E-004
  -1.4295473025790204E-004   1.3235285962117045E-004   3.5583779616518458E-005
  -2.4073750202581614E-004   7.0393231477742209E-005   1.2690625932574444E-004
  -1.9671702348828596E-005   1.9952261867714478E-004  -6.9539272556747465E-005
   1.9169819977639943E-004  -5.5443048713742211E-005   2.2732937161722924E-004
  -7.2823501669587269E-004  -2.4805277038966294E-004  -6.6256440008344795E-004
  -6.4890661087122767E-004  -5.5865122413249315E-004  -4.5276859361435768E-004
  -1.4125927664923665E-004   1.8244838249506989E-004   6.3118073444408784E-005
  -3.2577661620153107E-004  -1.0721238574792060E-004  -3.8588469280452378E-004
   4.3667750016740765E-004   8.8496563097488785E-004   3.6385054572108713E-005
  -1.1863944504700863E-004  -2.4100545979636183E-004   2.1793069963757086E-004
   2.1285241051211443E-004   3.7204321271705583E-005   1.8213312713835940E-004
  -1.9018158463589764E-004  -8.1951503339264047E-004   1.1142288783189527E-004
   7.2142993790512939E-005  -2.0350713986422533E-004   1.1241555350623007E-004
  -5.3333327951130114E-004   3.2726271318590787E-004   8.6024527875212087E-004
  -3.6863275231161707E-004  -8.4904423159532154E-004  -3.1673330248599147E-004
  -1.5503033196831040E-005   2.4679570495184184E-004   2.8928389069230018E-005
   3.4436536820931889E-005   2.2809159577530829E-004   8.7047634616617415E-005
  -3.0114216612073279E-004   1.6772582582905882E-004  -2.7238929609235125E-004
  -1.8400347778241063E-004   1.5832961790846696E-004  -8.2220366619965297E-005
   1.2458674040926399E-004   5.3853751688374008E-004   3.4377786005841537E-004
  -7.7550662692435495E-006  -5.3000228840820522E-005   3.2831855275259976E-004
   2.9876495600836899E-004   3.3926583613524217E-005  -6.0487301062724512E-005
   6.1724166534583924E-004  -7.5350629593412979E-004  -3.7577681064300195E-004
   1.0344484032207026E-004   3.3177755723084879E-004   9.0124001552773656E-005
   1.7700698197801959E-004   2.3836692454126638E-004  -1.4253365007056898E-004
   1.0584530000700183E-003  -1.4752251333269624E-004  -5.5701712601879549E-004
  -2.6635874312453094E-004  -5.0430043095081603E-004   2.4115424208021845E-004
  -6.7852083784333050E-005   1.2693299325440854E-004   2.0313536219936883E-005
   3.3928948944783754E-004   3.0995812686606090E-005  -8.7182469209357407E-005
  -1.9301842518821282E-004   4.0286809568552933E-004  -5.8327466566593769E-004
   1.8042994960100101E-004  -1.8808964079583820E-004   4.1337170985185736E-005
   3.4828383208286247E-004   3.8139157851827331E-005  -5.1055303252740467E-004
  -7.7664668695246251E-004  -3.9818812940791343E-004   8.1477378205892528E-004
  -1.6037106388632378E-004  -3.0125507430619090E-004  -1.8395613085030952E-004
   3.1305217000513066E-005  -2.7273053887378245E-004  -1.3676578829148933E-004
  -5.1383869086774219E-005   5.8128082252802233E-004  -4.1395298995238372E-004
   2.4862054567569878E-005   2.9769291363073487E-004  -1.0364989014385504E-005
  -2.5697290382062454E-004  -2.0399318613525010E-004   8.7867312077542508E-004
   1.1119201168627282E-003   3.8011195406896654E-004   3.9759474081667143E-005
  -3.1715919743291359E-004  -1.9078448245388666E-004  -6.7876269420063959E-006
  -5.9266370314624206E-004  -1.3243694053431065E-005   7.8830701227549449E-004
  -1.1165485504256696E-004  -2.8551120996672905E-004  -7.3459170180681497E-004
   2.4513578799123441E-004  -2.6558323685182472E-004   2.2123834291610471E-004
  -5.5087287190692820E-004   1.9599613787614235E-004  -3.0316170326767584E-004
  -1.0071572805769702E-003   4.6523353134876793E-004  -4.6093425213357424E-004
   7.8302469860739023E-005   4.6733342425420163E-005   1.5198587310895697E-004
  -2.9791355747928323E-004   2.5406810320368294E-004   4.7961232434472647E-004
  -6.7816168413730926E-005   1.0648830415396806E-004   2.6400104909458744E-004
   1.4495263096853419E-004  -8.9819839557157160E-005  -1.6458048854342433E-004
   6.5831784053589191E-004   2.4830550334323092E-004  -1.6656316013544537E-004
  -2.1107544193174181E-004   8.6130339141983416E-005  -5.1697321557451605E-004
   9.0494899914305087E-005   1.1755815656617414E-004   1.5225652866307417E-004