  **** **** ******  **  PROGRAM STARTED AT               Mon Nov 19 17:26:16 200
 ***** ** ***  *** **   PROGRAM STARTED ON                              ocisgi29
 **    ****   ******    PROGRAM STARTED BY                                hutter
 ***** **    ** ** **   PROGRAM PROCESS ID                                100080
  **** **  *******  **  PROGRAM STARTED IN 
                                /home/ocisgi29/hutter/CP2K/cp2k/tests/Fist/Argon

 CP2K| Program name                                                         FIST
 CP2K| Input file name                                                     inp03
 CP2K| Project name                                                        ar108
 CP2K| Default FFT library                                                 FFTSG
 CP2K| Global print level                                                      1
 CP2K| Total number of processors                                              1
 CP2K| This output from processor                                              0
 
 CONTROL| Run type                                                            MD
 CONTROL| Unit type                                                       KELVIN
 CONTROL| Periodic in X direction                                            YES
 CONTROL| Periodic in Y direction                                            YES
 CONTROL| Periodic in Z direction                                            YES
 CONTROL| Use of symmetry                                                     No
 CONTROL| Set file name                                                ar108.set
 CONTROL| Input file name                                              ar108.dat
 CONTROL| Print level                                                          1



                      ************* ******** ***********   
                     ************* **********************  
                     ****     **** ****      ***********   
                     ******** ****  *******     ****       
                     *******  ****   *******   ****        
                     ****     ****       ****  ****        
                     ****     **** **********  ****        
                      ****     **** ********    ****       
                     FRONTIERS IN SIMULATION TECHNOLOGY    
                                                           
                     C.J. Mundy, S. Balasubramanian,       
                     Ken Bagchi, J. Hutter, Ari Seitsonen  
                                 Version 0.3               
                                                                           

 MOLECULE| Total charge of system                                         0.0000
 MOLECULE| Multiplicity of system                                              0
 MOLECULE| Number of molecule types                                            1
 MOLECULE| Molecule type Molecule name           Molecules           Nose option
 MOLECULE|      1                argon              108                   GLOBAL

 MOLECULE| Molecule name                                                   argon
 MOLECULE| Number of atoms                                                     1
 MOLECULE| Number of atom types                                                1
 MOLECULE|                             Atom                  Weight       Charge
 MOLECULE|                             argon               39.94800      0.00000

 FORCE FIELD| Non-bonded interaction parameters
 FORCE FIELD| LJ (12-6)      argon  argon                 epsilon [K]   119.8000
 FORCE FIELD|                                               sigma [A]     3.4050
 FORCE FIELD|                                                rcut [A]     8.4000

 MD| Molecular Dynamics Protocol 
 MD| Ensemble Type                                                         NPT_I
 MD| Restart Type                                                           INIT
 MD| Number of Time Steps                                                    500
 MD| Time Step [fs]                                                         5.00
 MD| Temperature [K]                                                       85.00
 MD| Verlet buffer skin [Angstrom]                                          1.00
 MD| Nose-Hoover-Chain parameters 
 MD| Nose-Hoover-Chain length                                                  3
 MD| Nose-Hoover-Chain time constant [fs]                              1000.0000
 MD| Order of Yoshida integrator                                               3
 MD| Number of multiple time steps                                             2
 MD| Pressure [bar]                                                         0.00
 MD| Barostat time constant [fs]                                       1000.0000
 MD| Print MD information every                                      100 step(s)
 MD| File type     Print frequency[steps]                             File names
 MD| Coordinates          100                                          ar108.crd
 MD| Velocities           100                                          ar108.vel
 MD| Energies             100                                         ar108.ener
 MD| Temperature          100                                         ar108.temp
 MD| Pressure Tensor      100                                        ar108.ptens
 MD| Dump                 100                                         ar108.dump
 
 ATOM| No input section &ATOMS found 
 ATOM| Try to read default file                                        ar108.dat
 ATOM| Box parameters [Angstrom]
 ATOM|                                    17.15800        0.00000        0.00000
 ATOM|                                     0.00000       17.15800        0.00000
 ATOM|                                     0.00000        0.00000       17.15800
 ATOM| Number of atoms read                                                  108

 ********************** cell_index: nonbonded neighbor list*********************
 Total # of cells used for Verlet neighbor list                                1
 # of cells in each direction =                                1 X     1 X     1
 ************************** end subroutine cell_list ***************************

 
 ENERGY| Initialization proceeding
 

 ******************************** GO CP2K GO! **********************************
 INITIAL POTENTIAL ENERGY[K]           =                          -0.6520472E+05
 INITIAL KINETIC ENERGY[K]             =                           0.1354950E+05
 INITIAL TEMPERATURE[K]                =                           0.8442054E+02
 INITIAL PRESSURE[bar]                 =                           0.5936626E+03
 INITIAL VOLUME[A^3]                   =                           0.5051263E+04
 INITIAL CELL LNTHS[A]      =      0.1715800E+02   0.1715800E+02   0.1715800E+02
 INITIAL CELL ANGLS[deg]    =      0.9000000E+02   0.9000000E+02   0.9000000E+02
 ******************************** GO CP2K GO! **********************************

 *******************************************************************************
 ENSEMBLE TYPE                =                                            NPT_I
 STEP NUMBER                  =                                              100
 CONSERVED QNTY               =                                   -0.5152799E+05

                                                   INSTANTANEOUS        AVERAGES
 {E-E0}/E0                    =                    0.6535835E-05   0.6196645E-05
 POTENTIAL ENERGY[K]          =                   -0.6418764E+05  -0.6402200E+05
 KINETIC ENERGY[K]            =                    0.1331698E+05   0.1260397E+05
 TEMPERATURE[K]               =                    0.8297183E+02   0.7852941E+02
 PRESSURE[bar]                =                    0.9478098E+02  -0.1790255E+01
 VOLUME[A^3]                  =                    0.5286325E+04   0.5326272E+04
 CELL LNTHS[A]                =    0.1742013E+02   0.1742013E+02   0.1742013E+02
 AVE. CELL LNTHS[A]           =    0.1746291E+02   0.1746291E+02   0.1746291E+02
 LIST UPDATES[steps]          =                            21.00           17.00
 *******************************************************************************


 *******************************************************************************
 ENSEMBLE TYPE                =                                            NPT_I
 STEP NUMBER                  =                                              200
 CONSERVED QNTY               =                                   -0.5152747E+05

                                                   INSTANTANEOUS        AVERAGES
 {E-E0}/E0                    =                    0.3542747E-05   0.6990601E-05
 POTENTIAL ENERGY[K]          =                   -0.6315781E+05  -0.6417707E+05
 KINETIC ENERGY[K]            =                    0.1329924E+05   0.1331389E+05
 TEMPERATURE[K]               =                    0.8286131E+02   0.8295257E+02
 PRESSURE[bar]                =                    0.6984794E+02  -0.5731755E+00
 VOLUME[A^3]                  =                    0.5361999E+04   0.5317512E+04
 CELL LNTHS[A]                =    0.1750286E+02   0.1750286E+02   0.1750286E+02
 AVE. CELL LNTHS[A]           =    0.1745378E+02   0.1745378E+02   0.1745378E+02
 LIST UPDATES[steps]          =                            18.00           18.60
 *******************************************************************************


 *******************************************************************************
 ENSEMBLE TYPE                =                                            NPT_I
 STEP NUMBER                  =                                              300
 CONSERVED QNTY               =                                   -0.5152770E+05

                                                   INSTANTANEOUS        AVERAGES
 {E-E0}/E0                    =                    0.9109234E-06   0.6660428E-05
 POTENTIAL ENERGY[K]          =                   -0.6361683E+05  -0.6379912E+05
 KINETIC ENERGY[K]            =                    0.1439981E+05   0.1337508E+05
 TEMPERATURE[K]               =                    0.8971844E+02   0.8333382E+02
 PRESSURE[bar]                =                    0.2845448E+03  -0.2552294E+01
 VOLUME[A^3]                  =                    0.5262844E+04   0.5347579E+04
 CELL LNTHS[A]                =    0.1739429E+02   0.1739429E+02   0.1739429E+02
 AVE. CELL LNTHS[A]           =    0.1748650E+02   0.1748650E+02   0.1748650E+02
 LIST UPDATES[steps]          =                            19.00           19.13
 *******************************************************************************


 *******************************************************************************
 ENSEMBLE TYPE                =                                            NPT_I
 STEP NUMBER                  =                                              400
 CONSERVED QNTY               =                                   -0.5152788E+05

                                                   INSTANTANEOUS        AVERAGES
 {E-E0}/E0                    =                    0.4471653E-05   0.6209576E-05
 POTENTIAL ENERGY[K]          =                   -0.6285801E+05  -0.6367231E+05
 KINETIC ENERGY[K]            =                    0.1382577E+05   0.1357646E+05
 TEMPERATURE[K]               =                    0.8614187E+02   0.8458852E+02
 PRESSURE[bar]                =                    0.1960678E+03   0.4747031E+00
 VOLUME[A^3]                  =                    0.5348475E+04   0.5357810E+04
 CELL LNTHS[A]                =    0.1748813E+02   0.1748813E+02   0.1748813E+02
 AVE. CELL LNTHS[A]           =    0.1749772E+02   0.1749772E+02   0.1749772E+02
 LIST UPDATES[steps]          =                            21.00           19.55
 *******************************************************************************


 *******************************************************************************
 ENSEMBLE TYPE                =                                            NPT_I
 STEP NUMBER                  =                                              500
 CONSERVED QNTY               =                                   -0.5152864E+05

                                                   INSTANTANEOUS        AVERAGES
 {E-E0}/E0                    =                    0.1912033E-04   0.6455793E-05
 POTENTIAL ENERGY[K]          =                   -0.6241890E+05  -0.6336819E+05
 KINETIC ENERGY[K]            =                    0.1349902E+05   0.1349249E+05
 TEMPERATURE[K]               =                    0.8410607E+02   0.8406537E+02
 PRESSURE[bar]                =                   -0.2310940E+01   0.7359314E+00
 VOLUME[A^3]                  =                    0.5451888E+04   0.5375554E+04
 CELL LNTHS[A]                =    0.1760012E+02   0.1760012E+02   0.1760012E+02
 AVE. CELL LNTHS[A]           =    0.1751702E+02   0.1751702E+02   0.1751702E+02
 LIST UPDATES[steps]          =                            22.00           20.17
 *******************************************************************************


 -------------------------------------------------------------------------------
 -                                                                             -
 -                                T I M I N G                                  -
 -                                                                             -
 -------------------------------------------------------------------------------
 SUBROUTINE                        CALLS  CPU TIME T  PERFORMANCE   ELAPSED TIME
 CP2K                                  1      4.93 I       ---             5.14
 CONTROL                               1      4.93 I       ---             5.14
 CNTL_WORK                             1      4.90 I       ---             5.10
 VERLET                              500      4.83 I       ---             4.98
 FORCE                               501      4.55 I       ---             4.61
 NONBOND                             501      4.17 E  39.1 Mflops          4.13
 LIST_CONTROL                        501      0.31 I       ---             0.34
 VERLET_LIST                          25      0.28 I 332.3 KIs             0.28
 LNHC                               2000      0.11 I  18.4 Mflops          0.13
 -------------------------------------------------------------------------------


  **** **** ******  **  PROGRAM ENDED AT                 Mon Nov 19 17:26:21 200
 ***** ** ***  *** **   PROGRAM RAN ON                                  ocisgi29
 **    ****   ******    PROGRAM RAN BY                                    hutter
 ***** **    ** ** **   PROGRAM PROCESS ID                                100080
  **** **  *******  **  PROGRAM RAN IN     
                                /home/ocisgi29/hutter/CP2K/cp2k/tests/Fist/Argon
