  **** **** ******  **  PROGRAM STARTED AT               Tue Jul  3 14:38:10 200
 ***** ** ***  *** **   PROGRAM STARTED ON                              ocisgi29
 **    ****   ******    PROGRAM STARTED BY                                hutter
 ***** **    ** ** **   PROGRAM PROCESS ID                                313964
  **** **  *******  **  PROGRAM STARTED IN 
                                /home/ocisgi29/hutter/CP2K/cp2k/tests/Fist/Argon

 CP2K| Program name                                                         FIST
 CP2K| Input file name                                                     inp01
 CP2K| Project name                                                        ar108
 CP2K| Default FFT library                                                 FFTSG
 CP2K| Global print level                                                      1
 CP2K| Total number of processors                                              1
 CP2K| This output from processor                                              0
 
 CONTROL| Run type                                                            MD
 CONTROL| Unit type                                                       KELVIN
 CONTROL| Periodic in X direction                                            YES
 CONTROL| Periodic in Y direction                                            YES
 CONTROL| Periodic in Z direction                                            YES
 CONTROL| Use of symmetry                                                     No
 CONTROL| Set file name                                                ar108.set
 CONTROL| Input file name                                              ar108.dat
 CONTROL| Print level                                                          1



                      ************* ******** ***********   
                     ************* **********************  
                     ****     **** ****      ***********   
                     ******** ****  *******     ****       
                     *******  ****   *******   ****        
                     ****     ****       ****  ****        
                     ****     **** **********  ****        
                      ****     **** ********    ****       
                     FRONTIERS IN SIMULATION TECHNOLOGY    
                                                           
                     C.J. Mundy, S. Balasubramanian,       
                     Ken Bagchi, J. Hutter, Ari Seitsonen  
                                 Version 0.3               
                                                                           

 MOLECULE| Total charge of system                                         0.0000
 MOLECULE| Multiplicity of system                                              0
 MOLECULE| Number of molecule types                                            1
 MOLECULE| Molecule type Molecule name           Molecules           Nose option
 MOLECULE|      1                argon              108                   GLOBAL

 MOLECULE| Molecule name                                                   argon
 MOLECULE| Number of atoms                                                     1
 MOLECULE| Number of atom types                                                1
 MOLECULE|                             Atom                  Weight       Charge
 MOLECULE|                             argon               39.94800      0.00000

 FORCE FIELD| Non-bonded interaction parameters
 FORCE FIELD| LJ (12-6)      argon  argon                 epsilon [K]   119.8000
 FORCE FIELD|                                               sigma [A]     3.4050
 FORCE FIELD|                                                rcut [A]     8.4000

 MD| Molecular Dynamics Protocol 
 MD| Ensemble Type                                                           NVE
 MD| Restart Type                                                           INIT
 MD| Number of Time Steps                                                    500
 MD| Time Step [fs]                                                         5.00
 MD| Temperature [K]                                                       85.00
 MD| Verlet buffer skin [Angstrom]                                          1.00
 MD| Print MD information every                                      100 step(s)
 MD| File type     Print frequency[steps]                             File names
 MD| Coordinates          100                                          ar108.crd
 MD| Velocities           100                                          ar108.vel
 MD| Energies             100                                         ar108.ener
 MD| Temperature          100                                         ar108.temp
 MD| Pressure Tensor      100                                        ar108.ptens
 MD| Dump                 100                                         ar108.dump
 
 ATOM| No input section &ATOMS found 
 ATOM| Try to read default file                                        ar108.dat
 ATOM| Box parameters [Angstrom]
 ATOM|                                    17.15800        0.00000        0.00000
 ATOM|                                     0.00000       17.15800        0.00000
 ATOM|                                     0.00000        0.00000       17.15800
 ATOM| Number of atoms read                                                  108

 ********************** cell_index: nonbonded neighbor list*********************
 Total # of cells used for Verlet neighbor list                                1
 # of cells in each direction =                                1 X     1 X     1
 ************************** end subroutine cell_list ***************************

 
 ENERGY| Initialization proceeding
 

 ******************************** GO CP2K GO! **********************************
 INITIAL POTENTIAL ENERGY[K]           =                          -0.6520472E+05
 INITIAL KINETIC ENERGY[K]             =                           0.1359300E+05
 INITIAL TEMPERATURE[K]                =                           0.8469159E+02
 INITIAL PRESSURE[bar]                 =                           0.5944553E+03
 INITIAL VOLUME[A^3]                   =                           0.5051263E+04
 INITIAL CELL LNTHS[A]      =      0.1715800E+02   0.1715800E+02   0.1715800E+02
 INITIAL CELL ANGLS[deg]    =      0.9000000E+02   0.9000000E+02   0.9000000E+02
 ******************************** GO CP2K GO! **********************************

 *******************************************************************************
 ENSEMBLE TYPE                =                                              NVE
 STEP NUMBER                  =                                              100
 CONSERVED QNTY               =                                   -0.5161120E+05

                                                   INSTANTANEOUS        AVERAGES
 {E-E0}/E0                    =                    0.3973303E-05   0.8914565E-05
 POTENTIAL ENERGY[K]          =                   -0.6542462E+05  -0.6574846E+05
 KINETIC ENERGY[K]            =                    0.1381342E+05   0.1413739E+05
 TEMPERATURE[K]               =                    0.8606492E+02   0.8808340E+02
 PRESSURE[bar]                =                    0.6101900E+03   0.5295743E+03
 LIST UPDATES[steps]          =                            19.00           21.00
 *******************************************************************************


 *******************************************************************************
 ENSEMBLE TYPE                =                                              NVE
 STEP NUMBER                  =                                              200
 CONSERVED QNTY               =                                   -0.5161192E+05

                                                   INSTANTANEOUS        AVERAGES
 {E-E0}/E0                    =                    0.9979838E-05   0.8601237E-05
 POTENTIAL ENERGY[K]          =                   -0.6650140E+05  -0.6552494E+05
 KINETIC ENERGY[K]            =                    0.1488948E+05   0.1391380E+05
 TEMPERATURE[K]               =                    0.9276933E+02   0.8669034E+02
 PRESSURE[bar]                =                    0.4608972E+03   0.5776006E+03
 LIST UPDATES[steps]          =                            23.00           21.22
 *******************************************************************************


 *******************************************************************************
 ENSEMBLE TYPE                =                                              NVE
 STEP NUMBER                  =                                              300
 CONSERVED QNTY               =                                   -0.5160993E+05

                                                   INSTANTANEOUS        AVERAGES
 {E-E0}/E0                    =                    0.2858969E-04   0.9261107E-05
 POTENTIAL ENERGY[K]          =                   -0.6625566E+05  -0.6568947E+05
 KINETIC ENERGY[K]            =                    0.1464573E+05   0.1407839E+05
 TEMPERATURE[K]               =                    0.9125062E+02   0.8771581E+02
 PRESSURE[bar]                =                    0.4514833E+03   0.5542373E+03
 LIST UPDATES[steps]          =                            19.00           21.43
 *******************************************************************************


 *******************************************************************************
 ENSEMBLE TYPE                =                                              NVE
 STEP NUMBER                  =                                              400
 CONSERVED QNTY               =                                   -0.5161049E+05

                                                   INSTANTANEOUS        AVERAGES
 {E-E0}/E0                    =                    0.1786154E-04   0.9275128E-05
 POTENTIAL ENERGY[K]          =                   -0.6666459E+05  -0.6605683E+05
 KINETIC ENERGY[K]            =                    0.1505410E+05   0.1444579E+05
 TEMPERATURE[K]               =                    0.9379502E+02   0.9000489E+02
 PRESSURE[bar]                =                    0.3287779E+03   0.4927122E+03
 LIST UPDATES[steps]          =                            20.00           21.39
 *******************************************************************************


 *******************************************************************************
 ENSEMBLE TYPE                =                                              NVE
 STEP NUMBER                  =                                              500
 CONSERVED QNTY               =                                   -0.5161130E+05

                                                   INSTANTANEOUS        AVERAGES
 {E-E0}/E0                    =                    0.2058091E-05   0.9481715E-05
 POTENTIAL ENERGY[K]          =                   -0.6595439E+05  -0.6619800E+05
 KINETIC ENERGY[K]            =                    0.1434309E+05   0.1458699E+05
 TEMPERATURE[K]               =                    0.8936506E+02   0.9088465E+02
 PRESSURE[bar]                =                    0.4792661E+03   0.4625451E+03
 LIST UPDATES[steps]          =                            19.00           20.87
 *******************************************************************************


 -------------------------------------------------------------------------------
 -                                                                             -
 -                                T I M I N G                                  -
 -                                                                             -
 -------------------------------------------------------------------------------
 SUBROUTINE                        CALLS  CPU TIME T  PERFORMANCE   ELAPSED TIME
 CP2K                                  1      5.37 I       ---             5.52
 CONTROL                               1      5.37 I       ---             5.52
 CNTL_WORK                             1      5.34 I       ---             5.48
 VERLET                              500      5.25 I       ---             5.37
 FORCE                               501      5.14 I       ---             5.24
 NONBOND                             501      4.71 E  36.4 Mflops          4.72
 LIST_CONTROL                        501      0.34 I       ---             0.38
 VERLET_LIST                          24      0.33 I 282.1 KIs             0.32
 -------------------------------------------------------------------------------


  **** **** ******  **  PROGRAM ENDED AT                 Tue Jul  3 14:38:15 200
 ***** ** ***  *** **   PROGRAM RAN ON                                  ocisgi29
 **    ****   ******    PROGRAM RAN BY                                    hutter
 ***** **    ** ** **   PROGRAM PROCESS ID                                313964
  **** **  *******  **  PROGRAM RAN IN     
                                /home/ocisgi29/hutter/CP2K/cp2k/tests/Fist/Argon
