  **** **** ******  **  PROGRAM STARTED AT               Tue Jul  3 14:40:42 200
 ***** ** ***  *** **   PROGRAM STARTED ON                              ocisgi29
 **    ****   ******    PROGRAM STARTED BY                                hutter
 ***** **    ** ** **   PROGRAM PROCESS ID                                314005
  **** **  *******  **  PROGRAM STARTED IN 
                                /home/ocisgi29/hutter/CP2K/cp2k/tests/Fist/Argon

 CP2K| Program name                                                         FIST
 CP2K| Input file name                                                     inp03
 CP2K| Project name                                                        ar108
 CP2K| Default FFT library                                                 FFTSG
 CP2K| Global print level                                                      1
 CP2K| Total number of processors                                              1
 CP2K| This output from processor                                              0
 
 CONTROL| Run type                                                            MD
 CONTROL| Unit type                                                       KELVIN
 CONTROL| Periodic in X direction                                            YES
 CONTROL| Periodic in Y direction                                            YES
 CONTROL| Periodic in Z direction                                            YES
 CONTROL| Use of symmetry                                                     No
 CONTROL| Set file name                                                ar108.set
 CONTROL| Input file name                                              ar108.dat
 CONTROL| Print level                                                          1



                      ************* ******** ***********   
                     ************* **********************  
                     ****     **** ****      ***********   
                     ******** ****  *******     ****       
                     *******  ****   *******   ****        
                     ****     ****       ****  ****        
                     ****     **** **********  ****        
                      ****     **** ********    ****       
                     FRONTIERS IN SIMULATION TECHNOLOGY    
                                                           
                     C.J. Mundy, S. Balasubramanian,       
                     Ken Bagchi, J. Hutter, Ari Seitsonen  
                                 Version 0.3               
                                                                           

 MOLECULE| Total charge of system                                         0.0000
 MOLECULE| Multiplicity of system                                              0
 MOLECULE| Number of molecule types                                            1
 MOLECULE| Molecule type Molecule name           Molecules           Nose option
 MOLECULE|      1                argon              108                   GLOBAL

 MOLECULE| Molecule name                                                   argon
 MOLECULE| Number of atoms                                                     1
 MOLECULE| Number of atom types                                                1
 MOLECULE|                             Atom                  Weight       Charge
 MOLECULE|                             argon               39.94800      0.00000

 FORCE FIELD| Non-bonded interaction parameters
 FORCE FIELD| LJ (12-6)      argon  argon                 epsilon [K]   119.8000
 FORCE FIELD|                                               sigma [A]     3.4050
 FORCE FIELD|                                                rcut [A]     8.4000

 MD| Molecular Dynamics Protocol 
 MD| Ensemble Type                                                         NPT_I
 MD| Restart Type                                                           INIT
 MD| Number of Time Steps                                                    500
 MD| Time Step [fs]                                                         5.00
 MD| Temperature [K]                                                       85.00
 MD| Verlet buffer skin [Angstrom]                                          1.00
 MD| Nose-Hoover-Chain parameters 
 MD| Nose-Hoover-Chain length                                                  3
 MD| Nose-Hoover-Chain time constant [fs]                              1000.0000
 MD| Order of Yoshida integrator                                               3
 MD| Number of multiple time steps                                             2
 MD| Pressure [bar]                                                         0.00
 MD| Barostat time constant [fs]                                       1000.0000
 MD| Print MD information every                                      100 step(s)
 MD| File type     Print frequency[steps]                             File names
 MD| Coordinates          100                                          ar108.crd
 MD| Velocities           100                                          ar108.vel
 MD| Energies             100                                         ar108.ener
 MD| Temperature          100                                         ar108.temp
 MD| Pressure Tensor      100                                        ar108.ptens
 MD| Dump                 100                                         ar108.dump
 
 ATOM| No input section &ATOMS found 
 ATOM| Try to read default file                                        ar108.dat
 ATOM| Box parameters [Angstrom]
 ATOM|                                    17.15800        0.00000        0.00000
 ATOM|                                     0.00000       17.15800        0.00000
 ATOM|                                     0.00000        0.00000       17.15800
 ATOM| Number of atoms read                                                  108

 ********************** cell_index: nonbonded neighbor list*********************
 Total # of cells used for Verlet neighbor list                                1
 # of cells in each direction =                                1 X     1 X     1
 ************************** end subroutine cell_list ***************************

 
 ENERGY| Initialization proceeding
 

 ******************************** GO CP2K GO! **********************************
 INITIAL POTENTIAL ENERGY[K]           =                          -0.6520472E+05
 INITIAL KINETIC ENERGY[K]             =                           0.1354950E+05
 INITIAL TEMPERATURE[K]                =                           0.8442054E+02
 INITIAL PRESSURE[bar]                 =                           0.5936626E+03
 INITIAL VOLUME[A^3]                   =                           0.5051263E+04
 INITIAL CELL LNTHS[A]      =      0.1715800E+02   0.1715800E+02   0.1715800E+02
 INITIAL CELL ANGLS[deg]    =      0.9000000E+02   0.9000000E+02   0.9000000E+02
 ******************************** GO CP2K GO! **********************************

 *******************************************************************************
 ENSEMBLE TYPE                =                                            NPT_I
 STEP NUMBER                  =                                              100
 CONSERVED QNTY               =                                   -0.5152767E+05

                                                   INSTANTANEOUS        AVERAGES
 {E-E0}/E0                    =                    0.1015791E-05   0.4549057E-05
 POTENTIAL ENERGY[K]          =                   -0.6638039E+05  -0.6559869E+05
 KINETIC ENERGY[K]            =                    0.1541172E+05   0.1431484E+05
 TEMPERATURE[K]               =                    0.9602317E+02   0.8918906E+02
 PRESSURE[bar]                =                    0.4184222E+03   0.5457371E+03
 VOLUME[A^3]                  =                    0.5051636E+04   0.5051453E+04
 CELL LNTHS[A]                =    0.1715842E+02   0.1715842E+02   0.1715842E+02
 AVE. CELL LNTHS[A]           =    0.1715822E+02   0.1715822E+02   0.1715822E+02
 LIST UPDATES[steps]          =                            22.00           23.00
 *******************************************************************************


 *******************************************************************************
 ENSEMBLE TYPE                =                                            NPT_I
 STEP NUMBER                  =                                              200
 CONSERVED QNTY               =                                   -0.5152825E+05

                                                   INSTANTANEOUS        AVERAGES
 {E-E0}/E0                    =                    0.1234151E-04   0.7514449E-05
 POTENTIAL ENERGY[K]          =                   -0.6587718E+05  -0.6585647E+05
 KINETIC ENERGY[K]            =                    0.1487723E+05   0.1475993E+05
 TEMPERATURE[K]               =                    0.9269301E+02   0.9196217E+02
 PRESSURE[bar]                =                    0.5442865E+03   0.5057968E+03
 VOLUME[A^3]                  =                    0.5051984E+04   0.5051633E+04
 CELL LNTHS[A]                =    0.1715882E+02   0.1715882E+02   0.1715882E+02
 AVE. CELL LNTHS[A]           =    0.1715842E+02   0.1715842E+02   0.1715842E+02
 LIST UPDATES[steps]          =                            20.00           21.00
 *******************************************************************************


 *******************************************************************************
 ENSEMBLE TYPE                =                                            NPT_I
 STEP NUMBER                  =                                              300
 CONSERVED QNTY               =                                   -0.5152835E+05

                                                   INSTANTANEOUS        AVERAGES
 {E-E0}/E0                    =                    0.1417234E-04   0.8212782E-05
 POTENTIAL ENERGY[K]          =                   -0.6681371E+05  -0.6608679E+05
 KINETIC ENERGY[K]            =                    0.1476966E+05   0.1488213E+05
 TEMPERATURE[K]               =                    0.9202278E+02   0.9272358E+02
 PRESSURE[bar]                =                    0.4211112E+03   0.4785762E+03
 VOLUME[A^3]                  =                    0.5052300E+04   0.5051805E+04
 CELL LNTHS[A]                =    0.1715917E+02   0.1715917E+02   0.1715917E+02
 AVE. CELL LNTHS[A]           =    0.1715861E+02   0.1715861E+02   0.1715861E+02
 LIST UPDATES[steps]          =                            26.00           21.14
 *******************************************************************************


 *******************************************************************************
 ENSEMBLE TYPE                =                                            NPT_I
 STEP NUMBER                  =                                              400
 CONSERVED QNTY               =                                   -0.5152847E+05

                                                   INSTANTANEOUS        AVERAGES
 {E-E0}/E0                    =                    0.1650603E-04   0.8334975E-05
 POTENTIAL ENERGY[K]          =                   -0.6667797E+05  -0.6605556E+05
 KINETIC ENERGY[K]            =                    0.1316396E+05   0.1444592E+05
 TEMPERATURE[K]               =                    0.8201846E+02   0.9000571E+02
 PRESSURE[bar]                =                    0.3143977E+03   0.4762874E+03
 VOLUME[A^3]                  =                    0.5052563E+04   0.5051963E+04
 CELL LNTHS[A]                =    0.1715947E+02   0.1715947E+02   0.1715947E+02
 AVE. CELL LNTHS[A]           =    0.1715879E+02   0.1715879E+02   0.1715879E+02
 LIST UPDATES[steps]          =                            23.00           21.72
 *******************************************************************************


 *******************************************************************************
 ENSEMBLE TYPE                =                                            NPT_I
 STEP NUMBER                  =                                              500
 CONSERVED QNTY               =                                   -0.5152811E+05

                                                   INSTANTANEOUS        AVERAGES
 {E-E0}/E0                    =                    0.9613090E-05   0.9129884E-05
 POTENTIAL ENERGY[K]          =                   -0.6627569E+05  -0.6622881E+05
 KINETIC ENERGY[K]            =                    0.1199324E+05   0.1414810E+05
 TEMPERATURE[K]               =                    0.7472425E+02   0.8815016E+02
 PRESSURE[bar]                =                    0.4456253E+03   0.4442389E+03
 VOLUME[A^3]                  =                    0.5052775E+04   0.5052105E+04
 CELL LNTHS[A]                =    0.1715971E+02   0.1715971E+02   0.1715971E+02
 AVE. CELL LNTHS[A]           =    0.1715895E+02   0.1715895E+02   0.1715895E+02
 LIST UPDATES[steps]          =                            23.00           21.74
 *******************************************************************************


 -------------------------------------------------------------------------------
 -                                                                             -
 -                                T I M I N G                                  -
 -                                                                             -
 -------------------------------------------------------------------------------
 SUBROUTINE                        CALLS  CPU TIME T  PERFORMANCE   ELAPSED TIME
 CP2K                                  1      5.60 I       ---             5.81
 CONTROL                               1      5.60 I       ---             5.81
 CNTL_WORK                             1      5.57 I       ---             5.77
 VERLET                              500      5.45 I       ---             5.65
 FORCE                               501      5.26 I       ---             5.30
 NONBOND                             501      4.77 E  36.0 Mflops          4.76
 LIST_CONTROL                        501      0.38 I       ---             0.37
 VERLET_LIST                          24      0.33 I 282.5 KIs             0.32
 -------------------------------------------------------------------------------


  **** **** ******  **  PROGRAM ENDED AT                 Tue Jul  3 14:40:48 200
 ***** ** ***  *** **   PROGRAM RAN ON                                  ocisgi29
 **    ****   ******    PROGRAM RAN BY                                    hutter
 ***** **    ** ** **   PROGRAM PROCESS ID                                314005
  **** **  *******  **  PROGRAM RAN IN     
                                /home/ocisgi29/hutter/CP2K/cp2k/tests/Fist/Argon
