  **** **** ******  **  PROGRAM STARTED AT               Tue Jul  3 14:41:27 200
 ***** ** ***  *** **   PROGRAM STARTED ON                              ocisgi29
 **    ****   ******    PROGRAM STARTED BY                                hutter
 ***** **    ** ** **   PROGRAM PROCESS ID                                314066
  **** **  *******  **  PROGRAM STARTED IN 
                                /home/ocisgi29/hutter/CP2K/cp2k/tests/Fist/Argon

 CP2K| Program name                                                         FIST
 CP2K| Input file name                                                     inp04
 CP2K| Project name                                                        ar108
 CP2K| Default FFT library                                                 FFTSG
 CP2K| Global print level                                                      1
 CP2K| Total number of processors                                              1
 CP2K| This output from processor                                              0
 
 CONTROL| Run type                                                            MD
 CONTROL| Unit type                                                       KELVIN
 CONTROL| Periodic in X direction                                            YES
 CONTROL| Periodic in Y direction                                            YES
 CONTROL| Periodic in Z direction                                            YES
 CONTROL| Use of symmetry                                                     No
 CONTROL| Set file name                                                ar108.set
 CONTROL| Input file name                                              ar108.dat
 CONTROL| Print level                                                          1



                      ************* ******** ***********   
                     ************* **********************  
                     ****     **** ****      ***********   
                     ******** ****  *******     ****       
                     *******  ****   *******   ****        
                     ****     ****       ****  ****        
                     ****     **** **********  ****        
                      ****     **** ********    ****       
                     FRONTIERS IN SIMULATION TECHNOLOGY    
                                                           
                     C.J. Mundy, S. Balasubramanian,       
                     Ken Bagchi, J. Hutter, Ari Seitsonen  
                                 Version 0.3               
                                                                           

 MOLECULE| Total charge of system                                         0.0000
 MOLECULE| Multiplicity of system                                              0
 MOLECULE| Number of molecule types                                            1
 MOLECULE| Molecule type Molecule name           Molecules           Nose option
 MOLECULE|      1                argon              108                   GLOBAL

 MOLECULE| Molecule name                                                   argon
 MOLECULE| Number of atoms                                                     1
 MOLECULE| Number of atom types                                                1
 MOLECULE|                             Atom                  Weight       Charge
 MOLECULE|                             argon               39.94800      0.00000

 FORCE FIELD| Non-bonded interaction parameters
 FORCE FIELD| LJ (12-6)      argon  argon                 epsilon [K]   119.8000
 FORCE FIELD|                                               sigma [A]     3.4050
 FORCE FIELD|                                                rcut [A]     8.4000

 MD| Molecular Dynamics Protocol 
 MD| Ensemble Type                                                         NPT_F
 MD| Restart Type                                                           INIT
 MD| Number of Time Steps                                                    500
 MD| Time Step [fs]                                                         5.00
 MD| Temperature [K]                                                       85.00
 MD| Verlet buffer skin [Angstrom]                                          1.00
 MD| Nose-Hoover-Chain parameters 
 MD| Nose-Hoover-Chain length                                                  3
 MD| Nose-Hoover-Chain time constant [fs]                              1000.0000
 MD| Order of Yoshida integrator                                               3
 MD| Number of multiple time steps                                             2
 MD| Pressure [bar]                                                         0.00
 MD| Barostat time constant [fs]                                       1000.0000
 MD| Print MD information every                                      100 step(s)
 MD| File type     Print frequency[steps]                             File names
 MD| Coordinates          100                                          ar108.crd
 MD| Velocities           100                                          ar108.vel
 MD| Energies             100                                         ar108.ener
 MD| Temperature          100                                         ar108.temp
 MD| Pressure Tensor      100                                        ar108.ptens
 MD| Dump                 100                                         ar108.dump
 
 ATOM| No input section &ATOMS found 
 ATOM| Try to read default file                                        ar108.dat
 ATOM| Box parameters [Angstrom]
 ATOM|                                    17.15800        0.00000        0.00000
 ATOM|                                     0.00000       17.15800        0.00000
 ATOM|                                     0.00000        0.00000       17.15800
 ATOM| Number of atoms read                                                  108

 ********************** cell_index: nonbonded neighbor list*********************
 Total # of cells used for Verlet neighbor list                                1
 # of cells in each direction =                                1 X     1 X     1
 ************************** end subroutine cell_list ***************************

 
 ENERGY| Initialization proceeding
 

 ******************************** GO CP2K GO! **********************************
 INITIAL POTENTIAL ENERGY[K]           =                          -0.6520472E+05
 INITIAL KINETIC ENERGY[K]             =                           0.1355582E+05
 INITIAL TEMPERATURE[K]                =                           0.8445994E+02
 INITIAL PRESSURE[bar]                 =                           0.5937779E+03
 INITIAL VOLUME[A^3]                   =                           0.5051263E+04
 INITIAL CELL LNTHS[A]      =      0.1715800E+02   0.1715800E+02   0.1715800E+02
 INITIAL CELL ANGLS[deg]    =      0.9000000E+02   0.9000000E+02   0.9000000E+02
 ******************************** GO CP2K GO! **********************************

 *******************************************************************************
 ENSEMBLE TYPE                =                                            NPT_F
 STEP NUMBER                  =                                              100
 CONSERVED QNTY               =                                   -0.5118300E+05

                                                   INSTANTANEOUS        AVERAGES
 {E-E0}/E0                    =                    0.2833740E-04   0.1167936E-04
 POTENTIAL ENERGY[K]          =                   -0.6652991E+05  -0.6629046E+05
 KINETIC ENERGY[K]            =                    0.1533613E+05   0.1493753E+05
 TEMPERATURE[K]               =                    0.9555219E+02   0.9306875E+02
 PRESSURE[bar]                =                    0.4547794E+03   0.4519077E+03
 VOLUME[A^3]                  =                    0.5051287E+04   0.5051275E+04
 CELL LNTHS[A]                =    0.1715857E+02   0.1715748E+02   0.1715803E+02
 AVE. CELL LNTHS[A]           =    0.1715829E+02   0.1715773E+02   0.1715802E+02
 CELL ANGLS[deg]              =    0.9000066E+02   0.9000090E+02   0.9000956E+02
 AVE. CELL ANGLS[deg]         =    0.9000033E+02   0.9000046E+02   0.9000488E+02
 LIST UPDATES[steps]          =                            20.00           21.00
 *******************************************************************************


 *******************************************************************************
 ENSEMBLE TYPE                =                                            NPT_F
 STEP NUMBER                  =                                              200
 CONSERVED QNTY               =                                   -0.5118271E+05

                                                   INSTANTANEOUS        AVERAGES
 {E-E0}/E0                    =                    0.2265496E-04   0.1701322E-04
 POTENTIAL ENERGY[K]          =                   -0.6667172E+05  -0.6611193E+05
 KINETIC ENERGY[K]            =                    0.1529559E+05   0.1481339E+05
 TEMPERATURE[K]               =                    0.9529963E+02   0.9229528E+02
 PRESSURE[bar]                =                    0.3760322E+03   0.4818712E+03
 VOLUME[A^3]                  =                    0.5051312E+04   0.5051288E+04
 CELL LNTHS[A]                =    0.1715911E+02   0.1715699E+02   0.1715806E+02
 AVE. CELL LNTHS[A]           =    0.1715857E+02   0.1715748E+02   0.1715803E+02
 CELL ANGLS[deg]              =    0.9000127E+02   0.9000173E+02   0.9001849E+02
 AVE. CELL ANGLS[deg]         =    0.9000065E+02   0.9000089E+02   0.9000950E+02
 LIST UPDATES[steps]          =                            21.00           21.44
 *******************************************************************************


 *******************************************************************************
 ENSEMBLE TYPE                =                                            NPT_F
 STEP NUMBER                  =                                              300
 CONSERVED QNTY               =                                   -0.5118287E+05

                                                   INSTANTANEOUS        AVERAGES
 {E-E0}/E0                    =                    0.2581758E-04   0.1838197E-04
 POTENTIAL ENERGY[K]          =                   -0.6642721E+05  -0.6611349E+05
 KINETIC ENERGY[K]            =                    0.1404919E+05   0.1463971E+05
 TEMPERATURE[K]               =                    0.8753391E+02   0.9121317E+02
 PRESSURE[bar]                =                    0.3589006E+03   0.4639700E+03
 VOLUME[A^3]                  =                    0.5051335E+04   0.5051300E+04
 CELL LNTHS[A]                =    0.1715962E+02   0.1715653E+02   0.1715809E+02
 AVE. CELL LNTHS[A]           =    0.1715884E+02   0.1715724E+02   0.1715805E+02
 CELL ANGLS[deg]              =    0.9000183E+02   0.9000251E+02   0.9002685E+02
 AVE. CELL ANGLS[deg]         =    0.9000095E+02   0.9000130E+02   0.9001392E+02
 LIST UPDATES[steps]          =                            23.00           22.08
 *******************************************************************************


 *******************************************************************************
 ENSEMBLE TYPE                =                                            NPT_F
 STEP NUMBER                  =                                              400
 CONSERVED QNTY               =                                   -0.5118190E+05

                                                   INSTANTANEOUS        AVERAGES
 {E-E0}/E0                    =                    0.6781482E-05   0.1872890E-04
 POTENTIAL ENERGY[K]          =                   -0.6492028E+05  -0.6616817E+05
 KINETIC ENERGY[K]            =                    0.1107290E+05   0.1427902E+05
 TEMPERATURE[K]               =                    0.6899004E+02   0.8896587E+02
 PRESSURE[bar]                =                    0.5741342E+03   0.4436337E+03
 VOLUME[A^3]                  =                    0.5051358E+04   0.5051311E+04
 CELL LNTHS[A]                =    0.1716009E+02   0.1715611E+02   0.1715812E+02
 AVE. CELL LNTHS[A]           =    0.1715909E+02   0.1715701E+02   0.1715806E+02
 CELL ANGLS[deg]              =    0.9000237E+02   0.9000325E+02   0.9003466E+02
 AVE. CELL ANGLS[deg]         =    0.9000124E+02   0.9000170E+02   0.9001815E+02
 LIST UPDATES[steps]          =                            26.00           22.11
 *******************************************************************************


 *******************************************************************************
 ENSEMBLE TYPE                =                                            NPT_F
 STEP NUMBER                  =                                              500
 CONSERVED QNTY               =                                   -0.5118283E+05

                                                   INSTANTANEOUS        AVERAGES
 {E-E0}/E0                    =                    0.2485711E-04   0.1828920E-04
 POTENTIAL ENERGY[K]          =                   -0.6756273E+05  -0.6628444E+05
 KINETIC ENERGY[K]            =                    0.1296849E+05   0.1391584E+05
 TEMPERATURE[K]               =                    0.8080058E+02   0.8670304E+02
 PRESSURE[bar]                =                    0.2182336E+03   0.4139516E+03
 VOLUME[A^3]                  =                    0.5051382E+04   0.5051323E+04
 CELL LNTHS[A]                =    0.1716056E+02   0.1715570E+02   0.1715815E+02
 AVE. CELL LNTHS[A]           =    0.1715934E+02   0.1715679E+02   0.1715808E+02
 CELL ANGLS[deg]              =    0.9000289E+02   0.9000398E+02   0.9004230E+02
 AVE. CELL ANGLS[deg]         =    0.9000152E+02   0.9000208E+02   0.9002222E+02
 LIST UPDATES[steps]          =                            28.00           22.50
 *******************************************************************************


 -------------------------------------------------------------------------------
 -                                                                             -
 -                                T I M I N G                                  -
 -                                                                             -
 -------------------------------------------------------------------------------
 SUBROUTINE                        CALLS  CPU TIME T  PERFORMANCE   ELAPSED TIME
 CP2K                                  1      5.75 I       ---             5.97
 CONTROL                               1      5.75 I       ---             5.97
 CNTL_WORK                             1      5.72 I       ---             5.93
 VERLET                              500      5.61 I       ---             5.81
 FORCE                               501      5.16 I       ---             5.21
 NONBOND                             501      4.71 E  36.4 Mflops          4.69
 LIST_CONTROL                        501      0.38 I       ---             0.36
 VERLET_LIST                          23      0.31 I 288.4 KIs             0.31
 -------------------------------------------------------------------------------


  **** **** ******  **  PROGRAM ENDED AT                 Tue Jul  3 14:41:33 200
 ***** ** ***  *** **   PROGRAM RAN ON                                  ocisgi29
 **    ****   ******    PROGRAM RAN BY                                    hutter
 ***** **    ** ** **   PROGRAM PROCESS ID                                314066
  **** **  *******  **  PROGRAM RAN IN     
                                /home/ocisgi29/hutter/CP2K/cp2k/tests/Fist/Argon
