  **** **** ******  **  PROGRAM STARTED AT               Mon Nov 19 17:27:32 200
 ***** ** ***  *** **   PROGRAM STARTED ON                              ocisgi29
 **    ****   ******    PROGRAM STARTED BY                                hutter
 ***** **    ** ** **   PROGRAM PROCESS ID                                100089
  **** **  *******  **  PROGRAM STARTED IN 
                                /home/ocisgi29/hutter/CP2K/cp2k/tests/Fist/Argon

 CP2K| Program name                                                         FIST
 CP2K| Input file name                                                     inp04
 CP2K| Project name                                                        ar108
 CP2K| Default FFT library                                                 FFTSG
 CP2K| Global print level                                                      1
 CP2K| Total number of processors                                              1
 CP2K| This output from processor                                              0
 
 CONTROL| Run type                                                            MD
 CONTROL| Unit type                                                       KELVIN
 CONTROL| Periodic in X direction                                            YES
 CONTROL| Periodic in Y direction                                            YES
 CONTROL| Periodic in Z direction                                            YES
 CONTROL| Use of symmetry                                                     No
 CONTROL| Set file name                                                ar108.set
 CONTROL| Input file name                                              ar108.dat
 CONTROL| Print level                                                          1



                      ************* ******** ***********   
                     ************* **********************  
                     ****     **** ****      ***********   
                     ******** ****  *******     ****       
                     *******  ****   *******   ****        
                     ****     ****       ****  ****        
                     ****     **** **********  ****        
                      ****     **** ********    ****       
                     FRONTIERS IN SIMULATION TECHNOLOGY    
                                                           
                     C.J. Mundy, S. Balasubramanian,       
                     Ken Bagchi, J. Hutter, Ari Seitsonen  
                                 Version 0.3               
                                                                           

 MOLECULE| Total charge of system                                         0.0000
 MOLECULE| Multiplicity of system                                              0
 MOLECULE| Number of molecule types                                            1
 MOLECULE| Molecule type Molecule name           Molecules           Nose option
 MOLECULE|      1                argon              108                   GLOBAL

 MOLECULE| Molecule name                                                   argon
 MOLECULE| Number of atoms                                                     1
 MOLECULE| Number of atom types                                                1
 MOLECULE|                             Atom                  Weight       Charge
 MOLECULE|                             argon               39.94800      0.00000

 FORCE FIELD| Non-bonded interaction parameters
 FORCE FIELD| LJ (12-6)      argon  argon                 epsilon [K]   119.8000
 FORCE FIELD|                                               sigma [A]     3.4050
 FORCE FIELD|                                                rcut [A]     8.4000

 MD| Molecular Dynamics Protocol 
 MD| Ensemble Type                                                         NPT_F
 MD| Restart Type                                                           INIT
 MD| Number of Time Steps                                                    500
 MD| Time Step [fs]                                                         5.00
 MD| Temperature [K]                                                       85.00
 MD| Verlet buffer skin [Angstrom]                                          1.00
 MD| Nose-Hoover-Chain parameters 
 MD| Nose-Hoover-Chain length                                                  3
 MD| Nose-Hoover-Chain time constant [fs]                              1000.0000
 MD| Order of Yoshida integrator                                               3
 MD| Number of multiple time steps                                             2
 MD| Pressure [bar]                                                         0.00
 MD| Barostat time constant [fs]                                       1000.0000
 MD| Print MD information every                                      100 step(s)
 MD| File type     Print frequency[steps]                             File names
 MD| Coordinates          100                                          ar108.crd
 MD| Velocities           100                                          ar108.vel
 MD| Energies             100                                         ar108.ener
 MD| Temperature          100                                         ar108.temp
 MD| Pressure Tensor      100                                        ar108.ptens
 MD| Dump                 100                                         ar108.dump
 
 ATOM| No input section &ATOMS found 
 ATOM| Try to read default file                                        ar108.dat
 ATOM| Box parameters [Angstrom]
 ATOM|                                    17.15800        0.00000        0.00000
 ATOM|                                     0.00000       17.15800        0.00000
 ATOM|                                     0.00000        0.00000       17.15800
 ATOM| Number of atoms read                                                  108

 ********************** cell_index: nonbonded neighbor list*********************
 Total # of cells used for Verlet neighbor list                                1
 # of cells in each direction =                                1 X     1 X     1
 ************************** end subroutine cell_list ***************************

 
 ENERGY| Initialization proceeding
 

 ******************************** GO CP2K GO! **********************************
 INITIAL POTENTIAL ENERGY[K]           =                          -0.6520472E+05
 INITIAL KINETIC ENERGY[K]             =                           0.1355582E+05
 INITIAL TEMPERATURE[K]                =                           0.8445994E+02
 INITIAL PRESSURE[bar]                 =                           0.5937779E+03
 INITIAL VOLUME[A^3]                   =                           0.5051263E+04
 INITIAL CELL LNTHS[A]      =      0.1715800E+02   0.1715800E+02   0.1715800E+02
 INITIAL CELL ANGLS[deg]    =      0.9000000E+02   0.9000000E+02   0.9000000E+02
 ******************************** GO CP2K GO! **********************************

 *******************************************************************************
 ENSEMBLE TYPE                =                                            NPT_F
 STEP NUMBER                  =                                              100
 CONSERVED QNTY               =                                   -0.5118053E+05

                                                   INSTANTANEOUS        AVERAGES
 {E-E0}/E0                    =                    0.2019164E-04   0.1040744E-04
 POTENTIAL ENERGY[K]          =                   -0.6418488E+05  -0.6549761E+05
 KINETIC ENERGY[K]            =                    0.1315591E+05   0.1409417E+05
 TEMPERATURE[K]               =                    0.8196827E+02   0.8781411E+02
 PRESSURE[bar]                =                    0.1304778E+03   0.3026938E+02
 VOLUME[A^3]                  =                    0.5267919E+04   0.5230998E+04
 CELL LNTHS[A]                =    0.1775360E+02   0.1695380E+02   0.1757812E+02
 AVE. CELL LNTHS[A]           =    0.1773339E+02   0.1700308E+02   0.1742000E+02
 CELL ANGLS[deg]              =    0.9203952E+02   0.9208917E+02   0.9438942E+02
 AVE. CELL ANGLS[deg]         =    0.9173695E+02   0.9101646E+02   0.9425203E+02
 LIST UPDATES[steps]          =                            17.00           13.14
 *******************************************************************************


 *******************************************************************************
 ENSEMBLE TYPE                =                                            NPT_F
 STEP NUMBER                  =                                              200
 CONSERVED QNTY               =                                   -0.5118155E+05

                                                   INSTANTANEOUS        AVERAGES
 {E-E0}/E0                    =                    0.2417538E-06   0.1156189E-04
 POTENTIAL ENERGY[K]          =                   -0.6425233E+05  -0.6453036E+05
 KINETIC ENERGY[K]            =                    0.1389230E+05   0.1345807E+05
 TEMPERATURE[K]               =                    0.8655639E+02   0.8385091E+02
 PRESSURE[bar]                =                    0.1467497E+03   0.8278995E+00
 VOLUME[A^3]                  =                    0.5292941E+04   0.5300753E+04
 CELL LNTHS[A]                =    0.1757059E+02   0.1740133E+02   0.1733836E+02
 AVE. CELL LNTHS[A]           =    0.1762021E+02   0.1720307E+02   0.1756781E+02
 CELL ANGLS[deg]              =    0.8979898E+02   0.8927662E+02   0.9311313E+02
 AVE. CELL ANGLS[deg]         =    0.9113241E+02   0.9091720E+02   0.9480196E+02
 LIST UPDATES[steps]          =                            13.00           13.27
 *******************************************************************************


 *******************************************************************************
 ENSEMBLE TYPE                =                                            NPT_F
 STEP NUMBER                  =                                              300
 CONSERVED QNTY               =                                   -0.5118116E+05

                                                   INSTANTANEOUS        AVERAGES
 {E-E0}/E0                    =                    0.7967546E-05   0.1480554E-04
 POTENTIAL ENERGY[K]          =                   -0.6344970E+05  -0.6381051E+05
 KINETIC ENERGY[K]            =                    0.1408670E+05   0.1316061E+05
 TEMPERATURE[K]               =                    0.8776761E+02   0.8199760E+02
 PRESSURE[bar]                =                    0.6606049E+02  -0.1298382E+02
 VOLUME[A^3]                  =                    0.5381028E+04   0.5360660E+04
 CELL LNTHS[A]                =    0.1808504E+02   0.1789875E+02   0.1667879E+02
 AVE. CELL LNTHS[A]           =    0.1771814E+02   0.1738809E+02   0.1746493E+02
 CELL ANGLS[deg]              =    0.8708318E+02   0.9049661E+02   0.9362964E+02
 AVE. CELL ANGLS[deg]         =    0.9045176E+02   0.9093767E+02   0.9412534E+02
 LIST UPDATES[steps]          =                            11.00           13.50
 *******************************************************************************


 *******************************************************************************
 ENSEMBLE TYPE                =                                            NPT_F
 STEP NUMBER                  =                                              400
 CONSERVED QNTY               =                                   -0.5118057E+05

                                                   INSTANTANEOUS        AVERAGES
 {E-E0}/E0                    =                    0.1946600E-04   0.1644783E-04
 POTENTIAL ENERGY[K]          =                   -0.6284850E+05  -0.6368702E+05
 KINETIC ENERGY[K]            =                    0.1450163E+05   0.1353427E+05
 TEMPERATURE[K]               =                    0.9035283E+02   0.8432568E+02
 PRESSURE[bar]                =                    0.8461434E+02  -0.2416159E+01
 VOLUME[A^3]                  =                    0.5398519E+04   0.5367926E+04
 CELL LNTHS[A]                =    0.1829131E+02   0.1728474E+02   0.1711188E+02
 AVE. CELL LNTHS[A]           =    0.1788906E+02   0.1741420E+02   0.1729652E+02
 CELL ANGLS[deg]              =    0.9045549E+02   0.9088203E+02   0.9360860E+02
 AVE. CELL ANGLS[deg]         =    0.8986808E+02   0.9088204E+02   0.9395823E+02
 LIST UPDATES[steps]          =                            15.00           13.45
 *******************************************************************************


 *******************************************************************************
 ENSEMBLE TYPE                =                                            NPT_F
 STEP NUMBER                  =                                              500
 CONSERVED QNTY               =                                   -0.5118097E+05

                                                   INSTANTANEOUS        AVERAGES
 {E-E0}/E0                    =                    0.1167816E-04   0.1855694E-04
 POTENTIAL ENERGY[K]          =                   -0.6188581E+05  -0.6327183E+05
 KINETIC ENERGY[K]            =                    0.1366257E+05   0.1349614E+05
 TEMPERATURE[K]               =                    0.8512503E+02   0.8408807E+02
 PRESSURE[bar]                =                   -0.4807332E+02  -0.9271774E+00
 VOLUME[A^3]                  =                    0.5587952E+04   0.5401573E+04
 CELL LNTHS[A]                =    0.1817837E+02   0.1744205E+02   0.1767528E+02
 AVE. CELL LNTHS[A]           =    0.1796544E+02   0.1740560E+02   0.1733349E+02
 CELL ANGLS[deg]              =    0.8664447E+02   0.9225296E+02   0.9180050E+02
 AVE. CELL ANGLS[deg]         =    0.8953522E+02   0.9094359E+02   0.9373696E+02
 LIST UPDATES[steps]          =                            20.00           13.75
 *******************************************************************************


 -------------------------------------------------------------------------------
 -                                                                             -
 -                                T I M I N G                                  -
 -                                                                             -
 -------------------------------------------------------------------------------
 SUBROUTINE                        CALLS  CPU TIME T  PERFORMANCE   ELAPSED TIME
 CP2K                                  1      5.40 I       ---             5.63
 CONTROL                               1      5.40 I       ---             5.63
 CNTL_WORK                             1      5.37 I       ---             5.59
 VERLET                              500      5.28 I       ---             5.48
 FORCE                               501      4.70 I       ---             4.84
 NONBOND                             501      4.04 E  40.0 Mflops          4.20
 LIST_CONTROL                        501      0.50 I       ---             0.49
 VERLET_LIST                          37      0.44 I 309.6 KIs             0.42
 LNHC                               2000      0.11 I  18.5 Mflops          0.13
 -------------------------------------------------------------------------------


  **** **** ******  **  PROGRAM ENDED AT                 Mon Nov 19 17:27:38 200
 ***** ** ***  *** **   PROGRAM RAN ON                                  ocisgi29
 **    ****   ******    PROGRAM RAN BY                                    hutter
 ***** **    ** ** **   PROGRAM PROCESS ID                                100089
  **** **  *******  **  PROGRAM RAN IN     
                                /home/ocisgi29/hutter/CP2K/cp2k/tests/Fist/Argon
