  **** **** ******  **  PROGRAM STARTED AT               Tue Jul  3 14:39:35 200
 ***** ** ***  *** **   PROGRAM STARTED ON                              ocisgi29
 **    ****   ******    PROGRAM STARTED BY                                hutter
 ***** **    ** ** **   PROGRAM PROCESS ID                                313949
  **** **  *******  **  PROGRAM STARTED IN 
                                /home/ocisgi29/hutter/CP2K/cp2k/tests/Fist/Argon

 CP2K| Program name                                                         FIST
 CP2K| Input file name                                                     inp02
 CP2K| Project name                                                        ar108
 CP2K| Default FFT library                                                 FFTSG
 CP2K| Global print level                                                      1
 CP2K| Total number of processors                                              1
 CP2K| This output from processor                                              0
 
 CONTROL| Run type                                                            MD
 CONTROL| Unit type                                                       KELVIN
 CONTROL| Periodic in X direction                                            YES
 CONTROL| Periodic in Y direction                                            YES
 CONTROL| Periodic in Z direction                                            YES
 CONTROL| Use of symmetry                                                     No
 CONTROL| Set file name                                                ar108.set
 CONTROL| Input file name                                              ar108.dat
 CONTROL| Print level                                                          1



                      ************* ******** ***********   
                     ************* **********************  
                     ****     **** ****      ***********   
                     ******** ****  *******     ****       
                     *******  ****   *******   ****        
                     ****     ****       ****  ****        
                     ****     **** **********  ****        
                      ****     **** ********    ****       
                     FRONTIERS IN SIMULATION TECHNOLOGY    
                                                           
                     C.J. Mundy, S. Balasubramanian,       
                     Ken Bagchi, J. Hutter, Ari Seitsonen  
                                 Version 0.3               
                                                                           

 MOLECULE| Total charge of system                                         0.0000
 MOLECULE| Multiplicity of system                                              0
 MOLECULE| Number of molecule types                                            1
 MOLECULE| Molecule type Molecule name           Molecules           Nose option
 MOLECULE|      1                argon              108                   GLOBAL

 MOLECULE| Molecule name                                                   argon
 MOLECULE| Number of atoms                                                     1
 MOLECULE| Number of atom types                                                1
 MOLECULE|                             Atom                  Weight       Charge
 MOLECULE|                             argon               39.94800      0.00000

 FORCE FIELD| Non-bonded interaction parameters
 FORCE FIELD| LJ (12-6)      argon  argon                 epsilon [K]   119.8000
 FORCE FIELD|                                               sigma [A]     3.4050
 FORCE FIELD|                                                rcut [A]     8.4000

 MD| Molecular Dynamics Protocol 
 MD| Ensemble Type                                                           NVT
 MD| Restart Type                                                           INIT
 MD| Number of Time Steps                                                    500
 MD| Time Step [fs]                                                         5.00
 MD| Temperature [K]                                                       85.00
 MD| Verlet buffer skin [Angstrom]                                          1.00
 MD| Nose-Hoover-Chain parameters 
 MD| Nose-Hoover-Chain length                                                  3
 MD| Nose-Hoover-Chain time constant [fs]                              1000.0000
 MD| Order of Yoshida integrator                                               3
 MD| Number of multiple time steps                                             2
 MD| Print MD information every                                      100 step(s)
 MD| File type     Print frequency[steps]                             File names
 MD| Coordinates          100                                          ar108.crd
 MD| Velocities           100                                          ar108.vel
 MD| Energies             100                                         ar108.ener
 MD| Temperature          100                                         ar108.temp
 MD| Pressure Tensor      100                                        ar108.ptens
 MD| Dump                 100                                         ar108.dump
 
 ATOM| No input section &ATOMS found 
 ATOM| Try to read default file                                        ar108.dat
 ATOM| Box parameters [Angstrom]
 ATOM|                                    17.15800        0.00000        0.00000
 ATOM|                                     0.00000       17.15800        0.00000
 ATOM|                                     0.00000        0.00000       17.15800
 ATOM| Number of atoms read                                                  108

 ********************** cell_index: nonbonded neighbor list*********************
 Total # of cells used for Verlet neighbor list                                1
 # of cells in each direction =                                1 X     1 X     1
 ************************** end subroutine cell_list ***************************

 
 ENERGY| Initialization proceeding
 

 ******************************** GO CP2K GO! **********************************
 INITIAL POTENTIAL ENERGY[K]           =                          -0.6520472E+05
 INITIAL KINETIC ENERGY[K]             =                           0.1355759E+05
 INITIAL TEMPERATURE[K]                =                           0.8447098E+02
 INITIAL PRESSURE[bar]                 =                           0.5938101E+03
 INITIAL VOLUME[A^3]                   =                           0.5051263E+04
 INITIAL CELL LNTHS[A]      =      0.1715800E+02   0.1715800E+02   0.1715800E+02
 INITIAL CELL ANGLS[deg]    =      0.9000000E+02   0.9000000E+02   0.9000000E+02
 ******************************** GO CP2K GO! **********************************

 *******************************************************************************
 ENSEMBLE TYPE                =                                              NVT
 STEP NUMBER                  =                                              100
 CONSERVED QNTY               =                                   -0.5160253E+05

                                                   INSTANTANEOUS        AVERAGES
 {E-E0}/E0                    =                    0.4164902E-04   0.1162762E-04
 POTENTIAL ENERGY[K]          =                   -0.6544032E+05  -0.6584598E+05
 KINETIC ENERGY[K]            =                    0.1445813E+05   0.1456383E+05
 TEMPERATURE[K]               =                    0.9008183E+02   0.9074039E+02
 PRESSURE[bar]                =                    0.4955694E+03   0.4947394E+03
 LIST UPDATES[steps]          =                            21.00           20.00
 *******************************************************************************


 *******************************************************************************
 ENSEMBLE TYPE                =                                              NVT
 STEP NUMBER                  =                                              200
 CONSERVED QNTY               =                                   -0.5160475E+05

                                                   INSTANTANEOUS        AVERAGES
 {E-E0}/E0                    =                    0.1319141E-05   0.1016296E-04
 POTENTIAL ENERGY[K]          =                   -0.6597314E+05  -0.6595500E+05
 KINETIC ENERGY[K]            =                    0.1491668E+05   0.1484031E+05
 TEMPERATURE[K]               =                    0.9293879E+02   0.9246300E+02
 PRESSURE[bar]                =                    0.4800040E+03   0.4665069E+03
 LIST UPDATES[steps]          =                            22.00           21.11
 *******************************************************************************


 *******************************************************************************
 ENSEMBLE TYPE                =                                              NVT
 STEP NUMBER                  =                                              300
 CONSERVED QNTY               =                                   -0.5160304E+05

                                                   INSTANTANEOUS        AVERAGES
 {E-E0}/E0                    =                    0.3169519E-04   0.1157041E-04
 POTENTIAL ENERGY[K]          =                   -0.6501130E+05  -0.6602308E+05
 KINETIC ENERGY[K]            =                    0.1291096E+05   0.1477969E+05
 TEMPERATURE[K]               =                    0.8044211E+02   0.9208527E+02
 PRESSURE[bar]                =                    0.5837353E+03   0.4686924E+03
 LIST UPDATES[steps]          =                            20.00           19.93
 *******************************************************************************


 *******************************************************************************
 ENSEMBLE TYPE                =                                              NVT
 STEP NUMBER                  =                                              400
 CONSERVED QNTY               =                                   -0.5160363E+05

                                                   INSTANTANEOUS        AVERAGES
 {E-E0}/E0                    =                    0.2037342E-04   0.1083306E-04
 POTENTIAL ENERGY[K]          =                   -0.6661422E+05  -0.6607388E+05
 KINETIC ENERGY[K]            =                    0.1305023E+05   0.1442657E+05
 TEMPERATURE[K]               =                    0.8130982E+02   0.8988514E+02
 PRESSURE[bar]                =                    0.3470614E+03   0.4536638E+03
 LIST UPDATES[steps]          =                            18.00           19.95
 *******************************************************************************


 *******************************************************************************
 ENSEMBLE TYPE                =                                              NVT
 STEP NUMBER                  =                                              500
 CONSERVED QNTY               =                                   -0.5160411E+05

                                                   INSTANTANEOUS        AVERAGES
 {E-E0}/E0                    =                    0.1106594E-04   0.9753400E-05
 POTENTIAL ENERGY[K]          =                   -0.6725693E+05  -0.6638173E+05
 KINETIC ENERGY[K]            =                    0.1268333E+05   0.1423619E+05
 TEMPERATURE[K]               =                    0.7902388E+02   0.8869897E+02
 PRESSURE[bar]                =                    0.2980238E+03   0.4014578E+03
 LIST UPDATES[steps]          =                            19.00           19.96
 *******************************************************************************


 -------------------------------------------------------------------------------
 -                                                                             -
 -                                T I M I N G                                  -
 -                                                                             -
 -------------------------------------------------------------------------------
 SUBROUTINE                        CALLS  CPU TIME T  PERFORMANCE   ELAPSED TIME
 CP2K                                  1      5.45 I       ---             5.63
 CONTROL                               1      5.45 I       ---             5.62
 CNTL_WORK                             1      5.42 I       ---             5.59
 VERLET                              500      5.34 I       ---             5.48
 FORCE                               501      4.98 I       ---             5.21
 NONBOND                             501      4.50 E  38.2 Mflops          4.67
 LIST_CONTROL                        501      0.34 I       ---             0.39
 VERLET_LIST                          25      0.31 I 313.0 KIs             0.34
 LNHC                               1000      0.15 I  11.1 Mflops          0.09
 -------------------------------------------------------------------------------


  **** **** ******  **  PROGRAM ENDED AT                 Tue Jul  3 14:39:41 200
 ***** ** ***  *** **   PROGRAM RAN ON                                  ocisgi29
 **    ****   ******    PROGRAM RAN BY                                    hutter
 ***** **    ** ** **   PROGRAM PROCESS ID                                313949
  **** **  *******  **  PROGRAM RAN IN     
                                /home/ocisgi29/hutter/CP2K/cp2k/tests/Fist/Argon
