  **** **** ******  **  PROGRAM STARTED AT               Tue Jul  3 14:44:17 200
 ***** ** ***  *** **   PROGRAM STARTED ON                              ocisgi29
 **    ****   ******    PROGRAM STARTED BY                                hutter
 ***** **    ** ** **   PROGRAM PROCESS ID                                313900
  **** **  *******  **  PROGRAM STARTED IN 
                                /home/ocisgi29/hutter/CP2K/cp2k/tests/Fist/Argon

 CP2K| Program name                                                         FIST
 CP2K| Input file name                                                     inp11
 CP2K| Project name                                                        ar864
 CP2K| Default FFT library                                                 FFTSG
 CP2K| Global print level                                                      1
 CP2K| Total number of processors                                              1
 CP2K| This output from processor                                              0
 
 CONTROL| Run type                                                            MD
 CONTROL| Unit type                                                       KELVIN
 CONTROL| Periodic in X direction                                            YES
 CONTROL| Periodic in Y direction                                            YES
 CONTROL| Periodic in Z direction                                            YES
 CONTROL| Use of symmetry                                                     No
 CONTROL| Set file name                                                ar864.set
 CONTROL| Input file name                                              ar864.dat
 CONTROL| Print level                                                          1



                      ************* ******** ***********   
                     ************* **********************  
                     ****     **** ****      ***********   
                     ******** ****  *******     ****       
                     *******  ****   *******   ****        
                     ****     ****       ****  ****        
                     ****     **** **********  ****        
                      ****     **** ********    ****       
                     FRONTIERS IN SIMULATION TECHNOLOGY    
                                                           
                     C.J. Mundy, S. Balasubramanian,       
                     Ken Bagchi, J. Hutter, Ari Seitsonen  
                                 Version 0.3               
                                                                           

 MOLECULE| Total charge of system                                         0.0000
 MOLECULE| Multiplicity of system                                              0
 MOLECULE| Number of molecule types                                            1
 MOLECULE| Molecule type Molecule name           Molecules           Nose option
 MOLECULE|      1                argon              864                   GLOBAL

 MOLECULE| Molecule name                                                   argon
 MOLECULE| Number of atoms                                                     1
 MOLECULE| Number of atom types                                                1
 MOLECULE|                             Atom                  Weight       Charge
 MOLECULE|                             argon               39.94800      0.00000

 FORCE FIELD| Non-bonded interaction parameters
 FORCE FIELD| LJ (12-6)      argon  argon                 epsilon [K]   119.8000
 FORCE FIELD|                                               sigma [A]     3.4050
 FORCE FIELD|                                                rcut [A]     8.4000

 MD| Molecular Dynamics Protocol 
 MD| Ensemble Type                                                         NPT_I
 MD| Restart Type                                                           INIT
 MD| Number of Time Steps                                                    100
 MD| Time Step [fs]                                                         5.00
 MD| Temperature [K]                                                       85.00
 MD| Verlet buffer skin [Angstrom]                                          1.00
 MD| Nose-Hoover-Chain parameters 
 MD| Nose-Hoover-Chain length                                                  3
 MD| Nose-Hoover-Chain time constant [fs]                              1000.0000
 MD| Order of Yoshida integrator                                               3
 MD| Number of multiple time steps                                             2
 MD| Pressure [bar]                                                         0.00
 MD| Barostat time constant [fs]                                       1000.0000
 MD| Print MD information every                                       10 step(s)
 MD| File type     Print frequency[steps]                             File names
 MD| Coordinates           10                                          ar864.crd
 MD| Velocities            10                                          ar864.vel
 MD| Energies              10                                         ar864.ener
 MD| Temperature           10                                         ar864.temp
 MD| Pressure Tensor       10                                        ar864.ptens
 MD| Dump                  10                                         ar864.dump
 
 ATOM| No input section &ATOMS found 
 ATOM| Try to read default file                                        ar864.dat
 ATOM| Box parameters [Angstrom]
 ATOM|                                    34.93000        0.00000        0.00000
 ATOM|                                     0.00000       34.93000        0.00000
 ATOM|                                     0.00000        0.00000       34.93000
 ATOM| Number of atoms read                                                  864

 ********************** cell_index: nonbonded neighbor list*********************
 Total # of cells used for Verlet neighbor list                              512
 # of cells in each direction =                                8 X     8 X     8
 ************************** end subroutine cell_list ***************************

 
 ENERGY| Initialization proceeding
 

 ******************************** GO CP2K GO! **********************************
 INITIAL POTENTIAL ENERGY[K]           =                          -0.5036250E+06
 INITIAL KINETIC ENERGY[K]             =                           0.1099309E+06
 INITIAL TEMPERATURE[K]                =                           0.8492154E+02
 INITIAL PRESSURE[bar]                 =                           0.2491499E+03
 INITIAL VOLUME[A^3]                   =                           0.4261826E+05
 INITIAL CELL LNTHS[A]      =      0.3493000E+02   0.3493000E+02   0.3493000E+02
 INITIAL CELL ANGLS[deg]    =      0.9000000E+02   0.9000000E+02   0.9000000E+02
 ******************************** GO CP2K GO! **********************************

 *******************************************************************************
 ENSEMBLE TYPE                =                                            NPT_I
 STEP NUMBER                  =                                               10
 CONSERVED QNTY               =                                   -0.3935660E+06

                                                   INSTANTANEOUS        AVERAGES
 {E-E0}/E0                    =                    0.8075710E-06   0.9578738E-06
 POTENTIAL ENERGY[K]          =                   -0.5038009E+06  -0.5034968E+06
 KINETIC ENERGY[K]            =                    0.1103235E+06   0.1099220E+06
 TEMPERATURE[K]               =                    0.8522477E+02   0.8491467E+02
 PRESSURE[bar]                =                    0.2468371E+03   0.2513182E+03
 VOLUME[A^3]                  =                    0.4261838E+05   0.4261833E+05
 CELL LNTHS[A]                =    0.3493003E+02   0.3493003E+02   0.3493003E+02
 AVE. CELL LNTHS[A]           =    0.3493002E+02   0.3493002E+02   0.3493002E+02
 LIST UPDATES[steps]          =                             0.00            0.00
 *******************************************************************************


 *******************************************************************************
 ENSEMBLE TYPE                =                                            NPT_I
 STEP NUMBER                  =                                               20
 CONSERVED QNTY               =                                   -0.3935685E+06

                                                   INSTANTANEOUS        AVERAGES
 {E-E0}/E0                    =                    0.5299751E-05   0.1663045E-05
 POTENTIAL ENERGY[K]          =                   -0.5058827E+06  -0.5042061E+06
 KINETIC ENERGY[K]            =                    0.1126198E+06   0.1107392E+06
 TEMPERATURE[K]               =                    0.8699869E+02   0.8554589E+02
 PRESSURE[bar]                =                    0.2163082E+03   0.2409231E+03
 VOLUME[A^3]                  =                    0.4261849E+05   0.4261838E+05
 CELL LNTHS[A]                =    0.3493006E+02   0.3493006E+02   0.3493006E+02
 AVE. CELL LNTHS[A]           =    0.3493003E+02   0.3493003E+02   0.3493003E+02
 LIST UPDATES[steps]          =                             0.00            0.00
 *******************************************************************************


 *******************************************************************************
 ENSEMBLE TYPE                =                                            NPT_I
 STEP NUMBER                  =                                               30
 CONSERVED QNTY               =                                   -0.3935672E+06

                                                   INSTANTANEOUS        AVERAGES
 {E-E0}/E0                    =                    0.2144655E-05   0.2657430E-05
 POTENTIAL ENERGY[K]          =                   -0.5067203E+06  -0.5049718E+06
 KINETIC ENERGY[K]            =                    0.1136667E+06   0.1116115E+06
 TEMPERATURE[K]               =                    0.8780742E+02   0.8621979E+02
 PRESSURE[bar]                =                    0.2027940E+03   0.2295401E+03
 VOLUME[A^3]                  =                    0.4261860E+05   0.4261844E+05
 CELL LNTHS[A]                =    0.3493009E+02   0.3493009E+02   0.3493009E+02
 AVE. CELL LNTHS[A]           =    0.3493005E+02   0.3493005E+02   0.3493005E+02
 LIST UPDATES[steps]          =                            21.00           21.00
 *******************************************************************************


 *******************************************************************************
 ENSEMBLE TYPE                =                                            NPT_I
 STEP NUMBER                  =                                               40
 CONSERVED QNTY               =                                   -0.3935675E+06

                                                   INSTANTANEOUS        AVERAGES
 {E-E0}/E0                    =                    0.2763956E-05   0.2507181E-05
 POTENTIAL ENERGY[K]          =                   -0.5068658E+06  -0.5054279E+06
 KINETIC ENERGY[K]            =                    0.1140025E+06   0.1121709E+06
 TEMPERATURE[K]               =                    0.8806685E+02   0.8665192E+02
 PRESSURE[bar]                =                    0.2002172E+03   0.2224943E+03
 VOLUME[A^3]                  =                    0.4261872E+05   0.4261850E+05
 CELL LNTHS[A]                =    0.3493012E+02   0.3493012E+02   0.3493012E+02
 AVE. CELL LNTHS[A]           =    0.3493006E+02   0.3493006E+02   0.3493006E+02
 LIST UPDATES[steps]          =                            21.00           21.00
 *******************************************************************************


 *******************************************************************************
 ENSEMBLE TYPE                =                                            NPT_I
 STEP NUMBER                  =                                               50
 CONSERVED QNTY               =                                   -0.3935675E+06

                                                   INSTANTANEOUS        AVERAGES
 {E-E0}/E0                    =                    0.2808502E-05   0.2418732E-05
 POTENTIAL ENERGY[K]          =                   -0.5069891E+06  -0.5057252E+06
 KINETIC ENERGY[K]            =                    0.1142969E+06   0.1125661E+06
 TEMPERATURE[K]               =                    0.8829421E+02   0.8695722E+02
 PRESSURE[bar]                =                    0.1977165E+03   0.2177814E+03
 VOLUME[A^3]                  =                    0.4261883E+05   0.4261855E+05
 CELL LNTHS[A]                =    0.3493015E+02   0.3493015E+02   0.3493015E+02
 AVE. CELL LNTHS[A]           =    0.3493008E+02   0.3493008E+02   0.3493008E+02
 LIST UPDATES[steps]          =                            20.00           20.50
 *******************************************************************************


 *******************************************************************************
 ENSEMBLE TYPE                =                                            NPT_I
 STEP NUMBER                  =                                               60
 CONSERVED QNTY               =                                   -0.3935688E+06

                                                   INSTANTANEOUS        AVERAGES
 {E-E0}/E0                    =                    0.6087399E-05   0.2972575E-05
 POTENTIAL ENERGY[K]          =                   -0.5062998E+06  -0.5059051E+06
 KINETIC ENERGY[K]            =                    0.1137559E+06   0.1128377E+06
 TEMPERATURE[K]               =                    0.8787634E+02   0.8716700E+02
 PRESSURE[bar]                =                    0.2058332E+03   0.2147666E+03
 VOLUME[A^3]                  =                    0.4261894E+05   0.4261861E+05
 CELL LNTHS[A]                =    0.3493018E+02   0.3493018E+02   0.3493018E+02
 AVE. CELL LNTHS[A]           =    0.3493009E+02   0.3493009E+02   0.3493009E+02
 LIST UPDATES[steps]          =                            19.00           20.00
 *******************************************************************************


 *******************************************************************************
 ENSEMBLE TYPE                =                                            NPT_I
 STEP NUMBER                  =                                               70
 CONSERVED QNTY               =                                   -0.3935651E+06

                                                   INSTANTANEOUS        AVERAGES
 {E-E0}/E0                    =                    0.3324718E-05   0.2921858E-05
 POTENTIAL ENERGY[K]          =                   -0.5038484E+06  -0.5057667E+06
 KINETIC ENERGY[K]            =                    0.1114382E+06   0.1127847E+06
 TEMPERATURE[K]               =                    0.8608590E+02   0.8712607E+02
 PRESSURE[bar]                =                    0.2353789E+03   0.2158872E+03
 VOLUME[A^3]                  =                    0.4261905E+05   0.4261867E+05
 CELL LNTHS[A]                =    0.3493021E+02   0.3493021E+02   0.3493021E+02
 AVE. CELL LNTHS[A]           =    0.3493011E+02   0.3493011E+02   0.3493011E+02
 LIST UPDATES[steps]          =                            19.00           20.00
 *******************************************************************************


 *******************************************************************************
 ENSEMBLE TYPE                =                                            NPT_I
 STEP NUMBER                  =                                               80
 CONSERVED QNTY               =                                   -0.3935678E+06

                                                   INSTANTANEOUS        AVERAGES
 {E-E0}/E0                    =                    0.3720304E-05   0.2976527E-05
 POTENTIAL ENERGY[K]          =                   -0.5041850E+06  -0.5055097E+06
 KINETIC ENERGY[K]            =                    0.1118928E+06   0.1126075E+06
 TEMPERATURE[K]               =                    0.8643709E+02   0.8698917E+02
 PRESSURE[bar]                =                    0.2249251E+03   0.2181695E+03
 VOLUME[A^3]                  =                    0.4261916E+05   0.4261872E+05
 CELL LNTHS[A]                =    0.3493024E+02   0.3493024E+02   0.3493024E+02
 AVE. CELL LNTHS[A]           =    0.3493012E+02   0.3493012E+02   0.3493012E+02
 LIST UPDATES[steps]          =                            20.00           20.00
 *******************************************************************************


 *******************************************************************************
 ENSEMBLE TYPE                =                                            NPT_I
 STEP NUMBER                  =                                               90
 CONSERVED QNTY               =                                   -0.3935668E+06

                                                   INSTANTANEOUS        AVERAGES
 {E-E0}/E0                    =                    0.1011691E-05   0.3197497E-05
 POTENTIAL ENERGY[K]          =                   -0.5048968E+06  -0.5054258E+06
 KINETIC ENERGY[K]            =                    0.1127191E+06   0.1125984E+06
 TEMPERATURE[K]               =                    0.8707537E+02   0.8698212E+02
 PRESSURE[bar]                =                    0.2046532E+03   0.2174620E+03
 VOLUME[A^3]                  =                    0.4261927E+05   0.4261878E+05
 CELL LNTHS[A]                =    0.3493027E+02   0.3493027E+02   0.3493027E+02
 AVE. CELL LNTHS[A]           =    0.3493014E+02   0.3493014E+02   0.3493014E+02
 LIST UPDATES[steps]          =                            20.00           20.00
 *******************************************************************************


 *******************************************************************************
 ENSEMBLE TYPE                =                                            NPT_I
 STEP NUMBER                  =                                              100
 CONSERVED QNTY               =                                   -0.3935664E+06

                                                   INSTANTANEOUS        AVERAGES
 {E-E0}/E0                    =                    0.1581329E-06   0.2963465E-05
 POTENTIAL ENERGY[K]          =                   -0.5054878E+06  -0.5053931E+06
 KINETIC ENERGY[K]            =                    0.1134115E+06   0.1126364E+06
 TEMPERATURE[K]               =                    0.8761031E+02   0.8701150E+02
 PRESSURE[bar]                =                    0.1855149E+03   0.2152905E+03
 VOLUME[A^3]                  =                    0.4261938E+05   0.4261883E+05
 CELL LNTHS[A]                =    0.3493030E+02   0.3493030E+02   0.3493030E+02
 AVE. CELL LNTHS[A]           =    0.3493016E+02   0.3493016E+02   0.3493016E+02
 LIST UPDATES[steps]          =                            19.00           19.80
 *******************************************************************************


 -------------------------------------------------------------------------------
 -                                                                             -
 -                                T I M I N G                                  -
 -                                                                             -
 -------------------------------------------------------------------------------
 SUBROUTINE                        CALLS  CPU TIME T  PERFORMANCE   ELAPSED TIME
 CP2K                                  1     12.87 I       ---            13.05
 CONTROL                               1     12.87 I       ---            13.04
 CNTL_WORK                             1     12.81 I       ---            12.97
 VERLET                              100     11.52 I       ---            11.56
 FORCE                               101     11.33 I       ---            11.42
 NONBOND                             101      8.25 E  32.3 Mflops          8.24
 LIST_CONTROL                        101      2.90 I       ---             2.99
 VERLET_LIST                           6      2.81 I  64.9 KIs             2.86
 ENERGY                              101      0.48 E       ---             0.49
 -------------------------------------------------------------------------------


  **** **** ******  **  PROGRAM ENDED AT                 Tue Jul  3 14:44:30 200
 ***** ** ***  *** **   PROGRAM RAN ON                                  ocisgi29
 **    ****   ******    PROGRAM RAN BY                                    hutter
 ***** **    ** ** **   PROGRAM PROCESS ID                                313900
  **** **  *******  **  PROGRAM RAN IN     
                                /home/ocisgi29/hutter/CP2K/cp2k/tests/Fist/Argon
