  **** **** ******  **  PROGRAM STARTED AT               Mon Nov 19 17:29:03 200
 ***** ** ***  *** **   PROGRAM STARTED ON                              ocisgi29
 **    ****   ******    PROGRAM STARTED BY                                hutter
 ***** **    ** ** **   PROGRAM PROCESS ID                                100099
  **** **  *******  **  PROGRAM STARTED IN 
                                /home/ocisgi29/hutter/CP2K/cp2k/tests/Fist/Argon

 CP2K| Program name                                                         FIST
 CP2K| Input file name                                                     inp11
 CP2K| Project name                                                        ar864
 CP2K| Default FFT library                                                 FFTSG
 CP2K| Global print level                                                      1
 CP2K| Total number of processors                                              1
 CP2K| This output from processor                                              0
 
 CONTROL| Run type                                                            MD
 CONTROL| Unit type                                                       KELVIN
 CONTROL| Periodic in X direction                                            YES
 CONTROL| Periodic in Y direction                                            YES
 CONTROL| Periodic in Z direction                                            YES
 CONTROL| Use of symmetry                                                     No
 CONTROL| Set file name                                                ar864.set
 CONTROL| Input file name                                              ar864.dat
 CONTROL| Print level                                                          1



                      ************* ******** ***********   
                     ************* **********************  
                     ****     **** ****      ***********   
                     ******** ****  *******     ****       
                     *******  ****   *******   ****        
                     ****     ****       ****  ****        
                     ****     **** **********  ****        
                      ****     **** ********    ****       
                     FRONTIERS IN SIMULATION TECHNOLOGY    
                                                           
                     C.J. Mundy, S. Balasubramanian,       
                     Ken Bagchi, J. Hutter, Ari Seitsonen  
                                 Version 0.3               
                                                                           

 MOLECULE| Total charge of system                                         0.0000
 MOLECULE| Multiplicity of system                                              0
 MOLECULE| Number of molecule types                                            1
 MOLECULE| Molecule type Molecule name           Molecules           Nose option
 MOLECULE|      1                argon              864                   GLOBAL

 MOLECULE| Molecule name                                                   argon
 MOLECULE| Number of atoms                                                     1
 MOLECULE| Number of atom types                                                1
 MOLECULE|                             Atom                  Weight       Charge
 MOLECULE|                             argon               39.94800      0.00000

 FORCE FIELD| Non-bonded interaction parameters
 FORCE FIELD| LJ (12-6)      argon  argon                 epsilon [K]   119.8000
 FORCE FIELD|                                               sigma [A]     3.4050
 FORCE FIELD|                                                rcut [A]     8.4000

 MD| Molecular Dynamics Protocol 
 MD| Ensemble Type                                                         NPT_I
 MD| Restart Type                                                           INIT
 MD| Number of Time Steps                                                    100
 MD| Time Step [fs]                                                         5.00
 MD| Temperature [K]                                                       85.00
 MD| Verlet buffer skin [Angstrom]                                          1.00
 MD| Nose-Hoover-Chain parameters 
 MD| Nose-Hoover-Chain length                                                  3
 MD| Nose-Hoover-Chain time constant [fs]                              1000.0000
 MD| Order of Yoshida integrator                                               3
 MD| Number of multiple time steps                                             2
 MD| Pressure [bar]                                                         0.00
 MD| Barostat time constant [fs]                                       1000.0000
 MD| Print MD information every                                       10 step(s)
 MD| File type     Print frequency[steps]                             File names
 MD| Coordinates           10                                          ar864.crd
 MD| Velocities            10                                          ar864.vel
 MD| Energies              10                                         ar864.ener
 MD| Temperature           10                                         ar864.temp
 MD| Pressure Tensor       10                                        ar864.ptens
 MD| Dump                  10                                         ar864.dump
 
 ATOM| No input section &ATOMS found 
 ATOM| Try to read default file                                        ar864.dat
 ATOM| Box parameters [Angstrom]
 ATOM|                                    34.93000        0.00000        0.00000
 ATOM|                                     0.00000       34.93000        0.00000
 ATOM|                                     0.00000        0.00000       34.93000
 ATOM| Number of atoms read                                                  864

 ********************** cell_index: nonbonded neighbor list*********************
 Total # of cells used for Verlet neighbor list                              512
 # of cells in each direction =                                8 X     8 X     8
 ************************** end subroutine cell_list ***************************

 
 ENERGY| Initialization proceeding
 

 ******************************** GO CP2K GO! **********************************
 INITIAL POTENTIAL ENERGY[K]           =                          -0.5036250E+06
 INITIAL KINETIC ENERGY[K]             =                           0.1099309E+06
 INITIAL TEMPERATURE[K]                =                           0.8492154E+02
 INITIAL PRESSURE[bar]                 =                           0.2491499E+03
 INITIAL VOLUME[A^3]                   =                           0.4261826E+05
 INITIAL CELL LNTHS[A]      =      0.3493000E+02   0.3493000E+02   0.3493000E+02
 INITIAL CELL ANGLS[deg]    =      0.9000000E+02   0.9000000E+02   0.9000000E+02
 ******************************** GO CP2K GO! **********************************

 *******************************************************************************
 ENSEMBLE TYPE                =                                            NPT_I
 STEP NUMBER                  =                                               10
 CONSERVED QNTY               =                                   -0.3935665E+06

                                                   INSTANTANEOUS        AVERAGES
 {E-E0}/E0                    =                    0.3388952E-06   0.3233190E-06
 POTENTIAL ENERGY[K]          =                   -0.5036196E+06  -0.5034494E+06
 KINETIC ENERGY[K]            =                    0.1097258E+06   0.1096665E+06
 TEMPERATURE[K]               =                    0.8476305E+02   0.8471726E+02
 PRESSURE[bar]                =                    0.1564546E+03   0.2086355E+03
 VOLUME[A^3]                  =                    0.4289797E+05   0.4274815E+05
 CELL LNTHS[A]                =    0.3500625E+02   0.3500625E+02   0.3500625E+02
 AVE. CELL LNTHS[A]           =    0.3496543E+02   0.3496543E+02   0.3496543E+02
 LIST UPDATES[steps]          =                             0.00            0.00
 *******************************************************************************


 *******************************************************************************
 ENSEMBLE TYPE                =                                            NPT_I
 STEP NUMBER                  =                                               20
 CONSERVED QNTY               =                                   -0.3935679E+06

                                                   INSTANTANEOUS        AVERAGES
 {E-E0}/E0                    =                    0.3944390E-05   0.1343556E-05
 POTENTIAL ENERGY[K]          =                   -0.5042610E+06  -0.5037623E+06
 KINETIC ENERGY[K]            =                    0.1103300E+06   0.1098927E+06
 TEMPERATURE[K]               =                    0.8522983E+02   0.8489197E+02
 PRESSURE[bar]                =                   -0.5391809E+01   0.1380804E+03
 VOLUME[A^3]                  =                    0.4337721E+05   0.4295102E+05
 CELL LNTHS[A]                =    0.3513613E+02   0.3513613E+02   0.3513613E+02
 AVE. CELL LNTHS[A]           =    0.3502056E+02   0.3502056E+02   0.3502056E+02
 LIST UPDATES[steps]          =                            18.00           18.00
 *******************************************************************************


 *******************************************************************************
 ENSEMBLE TYPE                =                                            NPT_I
 STEP NUMBER                  =                                               30
 CONSERVED QNTY               =                                   -0.3935657E+06

                                                   INSTANTANEOUS        AVERAGES
 {E-E0}/E0                    =                    0.1568659E-05   0.1688840E-05
 POTENTIAL ENERGY[K]          =                   -0.5025073E+06  -0.5036773E+06
 KINETIC ENERGY[K]            =                    0.1090142E+06   0.1098589E+06
 TEMPERATURE[K]               =                    0.8421336E+02   0.8486590E+02
 PRESSURE[bar]                =                   -0.1177641E+03   0.6729983E+02
 VOLUME[A^3]                  =                    0.4383519E+05   0.4318049E+05
 CELL LNTHS[A]                =    0.3525935E+02   0.3525935E+02   0.3525935E+02
 AVE. CELL LNTHS[A]           =    0.3508262E+02   0.3508262E+02   0.3508262E+02
 LIST UPDATES[steps]          =                            18.00           18.00
 *******************************************************************************


 *******************************************************************************
 ENSEMBLE TYPE                =                                            NPT_I
 STEP NUMBER                  =                                               40
 CONSERVED QNTY               =                                   -0.3935650E+06

                                                   INSTANTANEOUS        AVERAGES
 {E-E0}/E0                    =                    0.3525504E-05   0.2126779E-05
 POTENTIAL ENERGY[K]          =                   -0.4999355E+06  -0.5030194E+06
 KINETIC ENERGY[K]            =                    0.1069370E+06   0.1093535E+06
 TEMPERATURE[K]               =                    0.8260873E+02   0.8447549E+02
 PRESSURE[bar]                =                   -0.1550588E+03   0.1459158E+02
 VOLUME[A^3]                  =                    0.4410863E+05   0.4338644E+05
 CELL LNTHS[A]                =    0.3533251E+02   0.3533251E+02   0.3533251E+02
 AVE. CELL LNTHS[A]           =    0.3513812E+02   0.3513812E+02   0.3513812E+02
 LIST UPDATES[steps]          =                            16.00           17.00
 *******************************************************************************


 *******************************************************************************
 ENSEMBLE TYPE                =                                            NPT_I
 STEP NUMBER                  =                                               50
 CONSERVED QNTY               =                                   -0.3935643E+06

                                                   INSTANTANEOUS        AVERAGES
 {E-E0}/E0                    =                    0.5279134E-05   0.2687657E-05
 POTENTIAL ENERGY[K]          =                   -0.4981526E+06  -0.5021861E+06
 KINETIC ENERGY[K]            =                    0.1054354E+06   0.1086883E+06
 TEMPERATURE[K]               =                    0.8144876E+02   0.8396162E+02
 PRESSURE[bar]                =                   -0.1340200E+03  -0.1778689E+02
 VOLUME[A^3]                  =                    0.4415315E+05   0.4353938E+05
 CELL LNTHS[A]                =    0.3534440E+02   0.3534440E+02   0.3534440E+02
 AVE. CELL LNTHS[A]           =    0.3517927E+02   0.3517927E+02   0.3517927E+02
 LIST UPDATES[steps]          =                            16.00           17.00
 *******************************************************************************


 *******************************************************************************
 ENSEMBLE TYPE                =                                            NPT_I
 STEP NUMBER                  =                                               60
 CONSERVED QNTY               =                                   -0.3935661E+06

                                                   INSTANTANEOUS        AVERAGES
 {E-E0}/E0                    =                    0.6373140E-06   0.2689932E-05
 POTENTIAL ENERGY[K]          =                   -0.4973258E+06  -0.5014385E+06
 KINETIC ENERGY[K]            =                    0.1047543E+06   0.1080845E+06
 TEMPERATURE[K]               =                    0.8092256E+02   0.8349520E+02
 PRESSURE[bar]                =                   -0.7323990E+02  -0.3211799E+02
 VOLUME[A^3]                  =                    0.4401441E+05   0.4363090E+05
 CELL LNTHS[A]                =    0.3530734E+02   0.3530734E+02   0.3530734E+02
 AVE. CELL LNTHS[A]           =    0.3520391E+02   0.3520391E+02   0.3520391E+02
 LIST UPDATES[steps]          =                            21.00           18.33
 *******************************************************************************


 *******************************************************************************
 ENSEMBLE TYPE                =                                            NPT_I
 STEP NUMBER                  =                                               70
 CONSERVED QNTY               =                                   -0.3935646E+06

                                                   INSTANTANEOUS        AVERAGES
 {E-E0}/E0                    =                    0.4364581E-05   0.2580305E-05
 POTENTIAL ENERGY[K]          =                   -0.4957334E+06  -0.5007326E+06
 KINETIC ENERGY[K]            =                    0.1033918E+06   0.1075065E+06
 TEMPERATURE[K]               =                    0.7987006E+02   0.8304869E+02
 PRESSURE[bar]                =                    0.1883196E+02  -0.3088456E+02
 VOLUME[A^3]                  =                    0.4379343E+05   0.4366854E+05
 CELL LNTHS[A]                =    0.3524815E+02   0.3524815E+02   0.3524815E+02
 AVE. CELL LNTHS[A]           =    0.3521410E+02   0.3521410E+02   0.3521410E+02
 LIST UPDATES[steps]          =                            21.00           18.33
 *******************************************************************************


 *******************************************************************************
 ENSEMBLE TYPE                =                                            NPT_I
 STEP NUMBER                  =                                               80
 CONSERVED QNTY               =                                   -0.3935639E+06

                                                   INSTANTANEOUS        AVERAGES
 {E-E0}/E0                    =                    0.6280956E-05   0.3110671E-05
 POTENTIAL ENERGY[K]          =                   -0.4956021E+06  -0.5000629E+06
 KINETIC ENERGY[K]            =                    0.1036258E+06   0.1069718E+06
 TEMPERATURE[K]               =                    0.8005085E+02   0.8263563E+02
 PRESSURE[bar]                =                    0.7394626E+02  -0.2005920E+02
 VOLUME[A^3]                  =                    0.4361542E+05   0.4367093E+05
 CELL LNTHS[A]                =    0.3520033E+02   0.3520033E+02   0.3520033E+02
 AVE. CELL LNTHS[A]           =    0.3521480E+02   0.3521480E+02   0.3521480E+02
 LIST UPDATES[steps]          =                            19.00           18.50
 *******************************************************************************


 *******************************************************************************
 ENSEMBLE TYPE                =                                            NPT_I
 STEP NUMBER                  =                                               90
 CONSERVED QNTY               =                                   -0.3935675E+06

                                                   INSTANTANEOUS        AVERAGES
 {E-E0}/E0                    =                    0.2977346E-05   0.3070404E-05
 POTENTIAL ENERGY[K]          =                   -0.4976761E+06  -0.4996998E+06
 KINETIC ENERGY[K]            =                    0.1060643E+06   0.1067551E+06
 TEMPERATURE[K]               =                    0.8193460E+02   0.8246824E+02
 PRESSURE[bar]                =                    0.6073635E+02  -0.1013272E+02
 VOLUME[A^3]                  =                    0.4354504E+05   0.4365949E+05
 CELL LNTHS[A]                =    0.3518138E+02   0.3518138E+02   0.3518138E+02
 AVE. CELL LNTHS[A]           =    0.3521178E+02   0.3521178E+02   0.3521178E+02
 LIST UPDATES[steps]          =                            19.00           18.50
 *******************************************************************************


 *******************************************************************************
 ENSEMBLE TYPE                =                                            NPT_I
 STEP NUMBER                  =                                              100
 CONSERVED QNTY               =                                   -0.3935654E+06

                                                   INSTANTANEOUS        AVERAGES
 {E-E0}/E0                    =                    0.2434401E-05   0.2922929E-05
 POTENTIAL ENERGY[K]          =                   -0.4984428E+06  -0.4995423E+06
 KINETIC ENERGY[K]            =                    0.1071818E+06   0.1067503E+06
 TEMPERATURE[K]               =                    0.8279785E+02   0.8246447E+02
 PRESSURE[bar]                =                    0.3314524E+02  -0.4428171E+01
 VOLUME[A^3]                  =                    0.4356166E+05   0.4364841E+05
 CELL LNTHS[A]                =    0.3518586E+02   0.3518586E+02   0.3518586E+02
 AVE. CELL LNTHS[A]           =    0.3520883E+02   0.3520883E+02   0.3520883E+02
 LIST UPDATES[steps]          =                            19.00           18.60
 *******************************************************************************


 -------------------------------------------------------------------------------
 -                                                                             -
 -                                T I M I N G                                  -
 -                                                                             -
 -------------------------------------------------------------------------------
 SUBROUTINE                        CALLS  CPU TIME T  PERFORMANCE   ELAPSED TIME
 CP2K                                  1     11.37 I       ---            11.53
 CONTROL                               1     11.36 I       ---            11.53
 CNTL_WORK                             1     11.31 I       ---            11.46
 VERLET                              100     10.03 I       ---            10.10
 FORCE                               101      9.73 I       ---             9.83
 NONBOND                             101      7.23 E  36.1 Mflops          7.27
 LIST_CONTROL                        101      2.29 I       ---             2.37
 VERLET_LIST                           6      2.22 I  80.5 KIs             2.25
 ENERGY                              101      0.50 E       ---             0.51
 -------------------------------------------------------------------------------


  **** **** ******  **  PROGRAM ENDED AT                 Mon Nov 19 17:29:14 200
 ***** ** ***  *** **   PROGRAM RAN ON                                  ocisgi29
 **    ****   ******    PROGRAM RAN BY                                    hutter
 ***** **    ** ** **   PROGRAM PROCESS ID                                100099
  **** **  *******  **  PROGRAM RAN IN     
                                /home/ocisgi29/hutter/CP2K/cp2k/tests/Fist/Argon
