  **** **** ******  **  PROGRAM STARTED AT               Tue Jul  3 14:43:13 200
 ***** ** ***  *** **   PROGRAM STARTED ON                              ocisgi29
 **    ****   ******    PROGRAM STARTED BY                                hutter
 ***** **    ** ** **   PROGRAM PROCESS ID                                314036
  **** **  *******  **  PROGRAM STARTED IN 
                                /home/ocisgi29/hutter/CP2K/cp2k/tests/Fist/Argon

 CP2K| Program name                                                         FIST
 CP2K| Input file name                                                     inp10
 CP2K| Project name                                                        ar864
 CP2K| Default FFT library                                                 FFTSG
 CP2K| Global print level                                                      1
 CP2K| Total number of processors                                              1
 CP2K| This output from processor                                              0
 
 CONTROL| Run type                                                            MD
 CONTROL| Unit type                                                       KELVIN
 CONTROL| Periodic in X direction                                            YES
 CONTROL| Periodic in Y direction                                            YES
 CONTROL| Periodic in Z direction                                            YES
 CONTROL| Use of symmetry                                                     No
 CONTROL| Set file name                                                ar864.set
 CONTROL| Input file name                                              ar864.dat
 CONTROL| Print level                                                          1



                      ************* ******** ***********   
                     ************* **********************  
                     ****     **** ****      ***********   
                     ******** ****  *******     ****       
                     *******  ****   *******   ****        
                     ****     ****       ****  ****        
                     ****     **** **********  ****        
                      ****     **** ********    ****       
                     FRONTIERS IN SIMULATION TECHNOLOGY    
                                                           
                     C.J. Mundy, S. Balasubramanian,       
                     Ken Bagchi, J. Hutter, Ari Seitsonen  
                                 Version 0.3               
                                                                           

 MOLECULE| Total charge of system                                         0.0000
 MOLECULE| Multiplicity of system                                              0
 MOLECULE| Number of molecule types                                            1
 MOLECULE| Molecule type Molecule name           Molecules           Nose option
 MOLECULE|      1                argon              864                   GLOBAL

 MOLECULE| Molecule name                                                   argon
 MOLECULE| Number of atoms                                                     1
 MOLECULE| Number of atom types                                                1
 MOLECULE|                             Atom                  Weight       Charge
 MOLECULE|                             argon               39.94800      0.00000

 FORCE FIELD| Non-bonded interaction parameters
 FORCE FIELD| LJ (12-6)      argon  argon                 epsilon [K]   119.8000
 FORCE FIELD|                                               sigma [A]     3.4050
 FORCE FIELD|                                                rcut [A]     8.4000

 MD| Molecular Dynamics Protocol 
 MD| Ensemble Type                                                           NVT
 MD| Restart Type                                                           INIT
 MD| Number of Time Steps                                                    100
 MD| Time Step [fs]                                                         5.00
 MD| Temperature [K]                                                       85.00
 MD| Verlet buffer skin [Angstrom]                                          1.00
 MD| Nose-Hoover-Chain parameters 
 MD| Nose-Hoover-Chain length                                                  3
 MD| Nose-Hoover-Chain time constant [fs]                              1000.0000
 MD| Order of Yoshida integrator                                               3
 MD| Number of multiple time steps                                             2
 MD| Print MD information every                                       10 step(s)
 MD| File type     Print frequency[steps]                             File names
 MD| Coordinates           10                                          ar864.crd
 MD| Velocities            10                                          ar864.vel
 MD| Energies              10                                         ar864.ener
 MD| Temperature           10                                         ar864.temp
 MD| Pressure Tensor       10                                        ar864.ptens
 MD| Dump                  10                                         ar864.dump
 
 ATOM| No input section &ATOMS found 
 ATOM| Try to read default file                                        ar864.dat
 ATOM| Box parameters [Angstrom]
 ATOM|                                    34.93000        0.00000        0.00000
 ATOM|                                     0.00000       34.93000        0.00000
 ATOM|                                     0.00000        0.00000       34.93000
 ATOM| Number of atoms read                                                  864

 ********************** cell_index: nonbonded neighbor list*********************
 Total # of cells used for Verlet neighbor list                              512
 # of cells in each direction =                                8 X     8 X     8
 ************************** end subroutine cell_list ***************************

 
 ENERGY| Initialization proceeding
 

 ******************************** GO CP2K GO! **********************************
 INITIAL POTENTIAL ENERGY[K]           =                          -0.5036250E+06
 INITIAL KINETIC ENERGY[K]             =                           0.1099245E+06
 INITIAL TEMPERATURE[K]                =                           0.8491659E+02
 INITIAL PRESSURE[bar]                 =                           0.2491361E+03
 INITIAL VOLUME[A^3]                   =                           0.4261826E+05
 INITIAL CELL LNTHS[A]      =      0.3493000E+02   0.3493000E+02   0.3493000E+02
 INITIAL CELL ANGLS[deg]    =      0.9000000E+02   0.9000000E+02   0.9000000E+02
 ******************************** GO CP2K GO! **********************************

 *******************************************************************************
 ENSEMBLE TYPE                =                                              NVT
 STEP NUMBER                  =                                               10
 CONSERVED QNTY               =                                   -0.3936575E+06

                                                   INSTANTANEOUS        AVERAGES
 {E-E0}/E0                    =                    0.6186157E-06   0.1592289E-05
 POTENTIAL ENERGY[K]          =                   -0.5046874E+06  -0.5039719E+06
 KINETIC ENERGY[K]            =                    0.1112039E+06   0.1103912E+06
 TEMPERATURE[K]               =                    0.8590492E+02   0.8527712E+02
 PRESSURE[bar]                =                    0.2416495E+03   0.2486573E+03
 LIST UPDATES[steps]          =                             0.00            0.00
 *******************************************************************************


 *******************************************************************************
 ENSEMBLE TYPE                =                                              NVT
 STEP NUMBER                  =                                               20
 CONSERVED QNTY               =                                   -0.3936613E+06

                                                   INSTANTANEOUS        AVERAGES
 {E-E0}/E0                    =                    0.9039459E-05   0.3759661E-05
 POTENTIAL ENERGY[K]          =                   -0.5069405E+06  -0.5050243E+06
 KINETIC ENERGY[K]            =                    0.1136675E+06   0.1115502E+06
 TEMPERATURE[K]               =                    0.8780806E+02   0.8617240E+02
 PRESSURE[bar]                =                    0.2139506E+03   0.2367201E+03
 LIST UPDATES[steps]          =                             0.00            0.00
 *******************************************************************************


 *******************************************************************************
 ENSEMBLE TYPE                =                                              NVT
 STEP NUMBER                  =                                               30
 CONSERVED QNTY               =                                   -0.3936596E+06

                                                   INSTANTANEOUS        AVERAGES
 {E-E0}/E0                    =                    0.4829909E-05   0.4865580E-05
 POTENTIAL ENERGY[K]          =                   -0.5060669E+06  -0.5055885E+06
 KINETIC ENERGY[K]            =                    0.1129948E+06   0.1122188E+06
 TEMPERATURE[K]               =                    0.8728835E+02   0.8668890E+02
 PRESSURE[bar]                =                    0.2263018E+03   0.2302758E+03
 LIST UPDATES[steps]          =                            21.00           21.00
 *******************************************************************************


 *******************************************************************************
 ENSEMBLE TYPE                =                                              NVT
 STEP NUMBER                  =                                               40
 CONSERVED QNTY               =                                   -0.3936569E+06

                                                   INSTANTANEOUS        AVERAGES
 {E-E0}/E0                    =                    0.1983129E-05   0.4087206E-05
 POTENTIAL ENERGY[K]          =                   -0.5039488E+06  -0.5053958E+06
 KINETIC ENERGY[K]            =                    0.1110615E+06   0.1121262E+06
 TEMPERATURE[K]               =                    0.8579490E+02   0.8661739E+02
 PRESSURE[bar]                =                    0.2534870E+03   0.2333574E+03
 LIST UPDATES[steps]          =                            19.00           20.00
 *******************************************************************************


 *******************************************************************************
 ENSEMBLE TYPE                =                                              NVT
 STEP NUMBER                  =                                               50
 CONSERVED QNTY               =                                   -0.3936569E+06

                                                   INSTANTANEOUS        AVERAGES
 {E-E0}/E0                    =                    0.2128513E-05   0.3683708E-05
 POTENTIAL ENERGY[K]          =                   -0.5041310E+06  -0.5050792E+06
 KINETIC ENERGY[K]            =                    0.1114183E+06   0.1119053E+06
 TEMPERATURE[K]               =                    0.8607056E+02   0.8644676E+02
 PRESSURE[bar]                =                    0.2460689E+03   0.2372874E+03
 LIST UPDATES[steps]          =                            19.00           20.00
 *******************************************************************************


 *******************************************************************************
 ENSEMBLE TYPE                =                                              NVT
 STEP NUMBER                  =                                               60
 CONSERVED QNTY               =                                   -0.3936587E+06

                                                   INSTANTANEOUS        AVERAGES
 {E-E0}/E0                    =                    0.2356557E-05   0.3273381E-05
 POTENTIAL ENERGY[K]          =                   -0.5065872E+06  -0.5051302E+06
 KINETIC ENERGY[K]            =                    0.1140424E+06   0.1120487E+06
 TEMPERATURE[K]               =                    0.8809766E+02   0.8655748E+02
 PRESSURE[bar]                =                    0.2025076E+03   0.2350486E+03
 LIST UPDATES[steps]          =                            17.00           19.00
 *******************************************************************************


 *******************************************************************************
 ENSEMBLE TYPE                =                                              NVT
 STEP NUMBER                  =                                               70
 CONSERVED QNTY               =                                   -0.3936591E+06

                                                   INSTANTANEOUS        AVERAGES
 {E-E0}/E0                    =                    0.3486141E-05   0.3358808E-05
 POTENTIAL ENERGY[K]          =                   -0.5085867E+06  -0.5055171E+06
 KINETIC ENERGY[K]            =                    0.1161948E+06   0.1125245E+06
 TEMPERATURE[K]               =                    0.8976040E+02   0.8692505E+02
 PRESSURE[bar]                =                    0.1611102E+03   0.2268867E+03
 LIST UPDATES[steps]          =                            17.00           19.00
 *******************************************************************************


 *******************************************************************************
 ENSEMBLE TYPE                =                                              NVT
 STEP NUMBER                  =                                               80
 CONSERVED QNTY               =                                   -0.3936587E+06

                                                   INSTANTANEOUS        AVERAGES
 {E-E0}/E0                    =                    0.2355897E-05   0.3148010E-05
 POTENTIAL ENERGY[K]          =                   -0.5092316E+06  -0.5059501E+06
 KINETIC ENERGY[K]            =                    0.1169643E+06   0.1130416E+06
 TEMPERATURE[K]               =                    0.9035480E+02   0.8732451E+02
 PRESSURE[bar]                =                    0.1379736E+03   0.2169895E+03
 LIST UPDATES[steps]          =                            18.00           18.75
 *******************************************************************************


 *******************************************************************************
 ENSEMBLE TYPE                =                                              NVT
 STEP NUMBER                  =                                               90
 CONSERVED QNTY               =                                   -0.3936571E+06

                                                   INSTANTANEOUS        AVERAGES
 {E-E0}/E0                    =                    0.1547125E-05   0.2956251E-05
 POTENTIAL ENERGY[K]          =                   -0.5092719E+06  -0.5063213E+06
 KINETIC ENERGY[K]            =                    0.1170949E+06   0.1134898E+06
 TEMPERATURE[K]               =                    0.9045568E+02   0.8767079E+02
 PRESSURE[bar]                =                    0.1246486E+03   0.2073093E+03
 LIST UPDATES[steps]          =                            18.00           18.75
 *******************************************************************************


 *******************************************************************************
 ENSEMBLE TYPE                =                                              NVT
 STEP NUMBER                  =                                              100
 CONSERVED QNTY               =                                   -0.3936580E+06

                                                   INSTANTANEOUS        AVERAGES
 {E-E0}/E0                    =                    0.7920924E-06   0.2816620E-05
 POTENTIAL ENERGY[K]          =                   -0.5098521E+06  -0.5066404E+06
 KINETIC ENERGY[K]            =                    0.1177258E+06   0.1138775E+06
 TEMPERATURE[K]               =                    0.9094310E+02   0.8797026E+02
 PRESSURE[bar]                =                    0.1108707E+03   0.1983262E+03
 LIST UPDATES[steps]          =                            20.00           19.00
 *******************************************************************************


 -------------------------------------------------------------------------------
 -                                                                             -
 -                                T I M I N G                                  -
 -                                                                             -
 -------------------------------------------------------------------------------
 SUBROUTINE                        CALLS  CPU TIME T  PERFORMANCE   ELAPSED TIME
 CP2K                                  1     12.65 I       ---            12.81
 CONTROL                               1     12.65 I       ---            12.81
 CNTL_WORK                             1     12.59 I       ---            12.74
 VERLET                              100     11.30 I       ---            11.33
 FORCE                               101     11.23 I       ---            11.30
 NONBOND                             101      8.10 E  32.9 Mflops          8.11
 LIST_CONTROL                        101      2.95 I       ---             2.99
 VERLET_LIST                           6      2.83 I  64.4 KIs             2.87
 ENERGY                              101      0.48 E       ---             0.49
 -------------------------------------------------------------------------------


  **** **** ******  **  PROGRAM ENDED AT                 Tue Jul  3 14:43:26 200
 ***** ** ***  *** **   PROGRAM RAN ON                                  ocisgi29
 **    ****   ******    PROGRAM RAN BY                                    hutter
 ***** **    ** ** **   PROGRAM PROCESS ID                                314036
  **** **  *******  **  PROGRAM RAN IN     
                                /home/ocisgi29/hutter/CP2K/cp2k/tests/Fist/Argon
