 fawzi@mars1-fe has created process number                                 49832

 IO| Input file name                                               H2O-force.inp
 IO| Output file name                                                   (stdout)
 IO| Error file name                                                    (stdout)
 IO| Library path                                                             ./
 IO| Basis set file name                                               BASIS_SET
 IO| Potential file name                                               POTENTIAL
 IO| Restart file name                                                   RESTART

  **** **** ******  **  PROGRAM STARTED AT              Mon Jun 23 14:01:53 2003
 ***** ** ***  *** **   PROGRAM STARTED ON                              mars1-fe
 **    ****   ******    PROGRAM STARTED BY                                 fawzi
 ***** **    ** ** **   PROGRAM PROCESS ID                                 49832
  **** **  *******  **  PROGRAM STARTED IN 
                    /gpfs/home/users.SP4/fawzi/cp2k/test-AIX-PowerPC_POWER4-0306

 CP2K| Program compiled at                          Mon Jun 23 13:58:02 DFT 2003
 CP2K| Program compiled on                                              mars1-fe
 CP2K| Program compiled for                                   AIX-PowerPC_POWER4
 CP2K| Program name                                                           QS
 CP2K| Project name                                              (not specified)
 CP2K| Default FFT library                                                 FFTSG
 CP2K| Run type                                            GEOMETRY OPTIMIZATION
 CP2K| Global print level                                                     10
 CP2K| Total number of message passing processes                               1
 CP2K| Number of threads for this process                                      1
 CP2K| This output is from process                                             0


 *******************************************************************************
 *******************************************************************************
 **                                                                           **
 **     #####                         ##              ##                      **
 **    ##   ##            ##          ##              ##                      **
 **   ##     ##                       ##            ######                    **
 **   ##     ##  ##   ##  ##   #####  ##  ##   ####   ##    #####    #####    **
 **   ##     ##  ##   ##  ##  ##      ## ##   ##      ##   ##   ##  ##   ##   **
 **   ##  ## ##  ##   ##  ##  ##      ####     ###    ##   ######   ######    **
 **    ##  ###   ##   ##  ##  ##      ## ##      ##   ##   ##       ##        **
 **     #######   #####   ##   #####  ##  ##  ####    ##    #####   ##        **
 **           ##                                                    ##        **
 **                                                                           **
 **                                                ... make the atoms dance   **
 **                                                                           **
 **            Copyright (C) by CP2K Developers Group (2000 - 2003)           **
 **                                                                           **
 *******************************************************************************
 ** G. Lippert, J. Hutter, and M. Parrinello                                  **
 ** A hybrid Gaussian and plane wave density functional scheme                **
 ** Molecular Physics, Vol. 92, Issue 3, 477-487 (1997)                       **
 *******************************************************************************

 DFT| Force calculation                                                      YES
 DFT| Cutoffs: density                                               0.10000E-09
 DFT|          gradient                                              0.10000E-07
 DFT| XC density smoothing                                               SPLINE2
 DFT| XC derivatives                                              SPLINE3_SMOOTH
 DFT| XC mesh (PW density)                                               default
 FUNCTIONAL| Exchange Functional                                         BECKE88
                                          A. Becke, Phys. Rev. A 38, 3098 (1988)
 FUNCTIONAL| Correlation Functional                                          LYP
                        C. Lee, W. Yang, R.G. Parr, Phys. Rev. B, 37, 785 (1988)

 QS| Method:                                                                 GPW
 QS| Density plane wave grid type                        NON-SPHERICAL FULLSPACE
 QS| Number of grid levels:                                                    1
 QS| Density cutoff [a.u.]:                                                200.0
 QS| Grid level progression factor:                                          3.0
 QS| Relative density cutoff [a.u.]:                                        15.0
 QS| Interaction thresholds: eps_pgf_orb:                                1.0E-12
 QS|                         eps_core_charge:                            1.0E-26
 QS|                         eps_rho_gspace:                             1.0E-24
 QS|                         eps_rho_rspace:                             1.0E-24
 QS|                         eps_gvg_rspace:                             1.0E-12
 QS|                         eps_ppl:                                    1.0E-26
 QS|                         eps_ppnl:                                   1.0E-26

 CELL| Volume [ANGSTROM**3]:                                             216.000
 CELL| Vector a [ANGSTROM]:       6.000     0.000     0.000    |a| =       6.000
 CELL| Vector b [ANGSTROM]:       0.000     6.000     0.000    |b| =       6.000
 CELL| Vector c [ANGSTROM]:       0.000     0.000     6.000    |c| =       6.000
 CELL| Angle (b,c) [degree]:                                              90.000
 CELL| Angle (a,c) [degree]:                                              90.000
 CELL| Angle (a,b) [degree]:                                              90.000
 CELL| Grid size for subcell generation                                    2.000


 TOTAL NUMBERS AND MAXIMUM NUMBERS

  Total number of

  - Atomic kinds:                       2
  - Atoms:                              3
  - Shell sets:                         6
  - Shells:                            11
  - Primitive Cartesian functions:     15
  - Cartesian basis functions:         24
  - Spherical basis functions:         23

  Maximum angular momentum quantum number of the

  - Orbital basis functions:                        2
  - Local part of the GTH pseudopotential:          2
  - Non-local part of the GTH pseudopotential:      0


 ATOMIC COORDINATES IN ANGSTROM

  Atom  Kind  Element       X           Y           Z       Z(eff)    Mass

     1    1   H     1    0.471139   -0.190510    1.237695      1     1.0080
     2    2   O     8    0.471139    0.566490    0.652695      6    15.9994
     3    1   H     1    0.471139    1.323490    1.237695      1     1.0080


 SCF PARAMETERS

  Density guess: ATOMIC

  nrebuild:              1
  max_scf:              50
  max_diis:              4
  eps_scf:            1.00E-08
  eps_diis:           1.00E-01
  eps_eigval:         1.00E-05
  eps_jacobi:         0.00E+00
  jacobi_threshold:   1.00E-07
  p_mix:              0.40
  work_syevx:         1.00
  level_shift [a.u.]: 0.00
  smear [a.u.]:       0.00

 PW_GRID: Information for grid number                                          1
 PW_GRID:   Bounds   1            -37      37                Points:          75
 PW_GRID:   Bounds   2            -37      37                Points:          75
 PW_GRID:   Bounds   3            -37      37                Points:          75
 PW_GRID: Volume element (a.u.^3)  0.3455E-02     Volume (a.u.^3)      1457.6399
 PW_GRID: Grid span                                                    FULLSPACE



 RS_GRID: Information for grid number                                          1
 RS_GRID:   Bounds   1            -37      37                Points:          75
 RS_GRID:   Bounds   2            -37      37                Points:          75
 RS_GRID:   Bounds   3            -37      37                Points:          75




 SCF WAVEFUNCTION OPTIMIZATION

 For spin  1

  Number of electrons:                             8
  Number of occupied orbitals:                     4

  Number of orbital functions:                    23
  extrapolation method:initial_guess                 

  Step  Update method              Time         Convergence        Total energy
  -----------------------------------------------------------------------------
     1  Mixing/Diag.   0.40E+00    2.89        0.9365719415      -17.0559207030
     2  Mixing/Diag.   0.40E+00    5.07        0.5501641880      -17.1209707252
     3  Mixing/Diag.   0.40E+00    4.76        0.3307866734      -17.1600308339
     4  Mixing/Diag.   0.40E+00    4.89        0.1961115379      -17.1828892811
     5  Mixing/Diag.   0.40E+00    4.68        0.1164188839      -17.1964014963
     6  Mixing/Diag.   0.40E+00    5.02        0.0690416180      -17.2044402201
     7  DIIS/Diag.     0.67E-03    4.58        0.0402471566      -17.2092402926
     8  DIIS/Diag.     0.66E-04    4.69        0.0001297591      -17.2164108671
     9  DIIS/Diag.     0.86E-05    4.60        0.0000138367      -17.2164108681
    10  DIIS/Diag.     0.24E-05    4.80        0.0000043527      -17.2164108681
    11  DIIS/Diag.     0.64E-06    4.78        0.0000015212      -17.2164108681
    12  DIIS/Diag.     0.90E-07    4.95        0.0000001070      -17.2164108681
    13  DIIS/Diag.     0.64E-07    4.81        0.0000000500      -17.2164108681
    14  DIIS/Diag.     0.20E-07    4.70        0.0000000159      -17.2164108681
    15  DIIS/Diag.     0.14E-07    4.82        0.0000000085      -17.2164108681

  *** SCF run converged ***


  Total electronic density (r-space):         -8.0000000000        0.0000000000
  Total core charge density (r-space):         8.0000000000       -0.0000000000
  Total charge density (r-space):                                  0.0000000000
  Total charge density (g-space):                                  0.0000000000

  Overlap energy of the core charge distribution:              0.00000008949409
  Self energy of the core charge distribution:               -43.83289054591484
  Core Hamiltonian energy:                                    12.95992137634291
  Hartree energy:                                             17.86400952261162
  Exchange-correlation energy:                                -4.20745131067879
  Total energy:                                              -17.21641086814500


 FORCES

  Atom    Kind        Component        X                     Y                     Z

     1       1          overlap     -0.0000045627008088    0.1919723743670284   -0.1515914373981705
     1       1          kinetic     -0.0000090986557900    0.5601646523153905   -0.4062986904776911
     1       1          gth_ppl      0.0000005584773547   -0.1062639905574513    0.0802564695279804
     1       1         gth_ppnl      0.0000004885397381    0.1090479119399595   -0.0797743605218656
     1       1     core_overlap     -0.0000000000000000   -0.0000006699106477    0.0000005176984530
     1       1         rho_core     -0.0000005800877580    0.0902823508677642   -0.0633701058866164
     1       1         rho_elec      0.0000147334891768   -0.8306057564207544    0.6099621852959815
     1       1            total      0.0000015390619129    0.0145968726012892   -0.0108154217619287

     2       2          overlap      0.0000083035778466    0.0000013569242836    0.3031863846837601
     2       2          kinetic      0.0000136129473964    0.0000023738140343    0.8126060875893353
     2       2          gth_ppl     -0.0000007505265013   -0.0000011874498809   -0.1605144361673799
     2       2         gth_ppnl     -0.0000009684629153    0.0000063040898435    0.1595535103032048
     2       2     core_overlap      0.0000000000000000   -0.0000000000000000   -0.0000010353969059
     2       2         rho_core     -0.0000910213315346    0.0000280896366651    1.6125528233381441
     2       2         rho_elec      0.0005473233884374   -0.0001106721416873   -2.7061267534233768
     2       2            total      0.0004764995927291   -0.0000737351267417    0.0212565809267820

     3       1          overlap     -0.0000037408770378   -0.1919737312913120   -0.1515949472855894
     3       1          kinetic     -0.0000045142916064   -0.5601670261294246   -0.4063073971116442
     3       1          gth_ppl      0.0000001920491466    0.1062651780073322    0.0802579666393997
     3       1         gth_ppnl      0.0000004799231772   -0.1090542160298032   -0.0797791497813397
     3       1     core_overlap     -0.0000000000000000    0.0000006699106477    0.0000005176984530
     3       1         rho_core     -0.0000015073999469   -0.0902826477865918   -0.0633697795986632
     3       1         rho_elec      0.0000094318492707    0.8306153056586770    0.6099787023567967
     3       1            total      0.0000003412530034   -0.0145964676604747   -0.0108140870825871

  Sum of total                       0.0004783799076455   -0.0000733301859273   -0.0003729279177339

 -------------------------------------------------------------------------------
 -                                                                             -
 -                                T I M I N G                                  -
 -                                                                             -
 -------------------------------------------------------------------------------
 SUBROUTINE                    CALLS  ASD CPU TIME T  PERFORMANCE   ELAPSED TIME
 CP2K                              1  1.0    77.48 I       ---             77.21
 quickstep                         1  2.0    77.48 I       ---             77.20
 qs_forces                         1  3.0    76.89 I       ---             76.60
 qs_energies                       1  4.0    74.04 I       ---             73.75
 scf_env_do_scf                    1  5.0    73.75 I       ---             73.45
 scf_iter                         15  6.0    70.34 I       ---             70.04
 qs_ks_update_qs_env              16  6.8    42.21 I       ---             42.05
 build_kohn_sham                  16  7.8    42.21 I       ---             42.04
 calculate_rho_elec               16  7.0    34.24 I       ---             34.12
 calculate_rho_elec_omp           16  8.0    31.72 I       ---             31.60
 build_kohn_sham_energy           16  8.8    30.72 I       ---             30.68
 calculate_xc_potential           16  9.8    29.91 I       ---             29.85
 xc_calculate_pw_new              16 10.8    29.90 I       ---             29.85
 fft_wrap_pw1pw2                 209 11.2    26.00 I       ---             25.84
 fft3d_s                         210 12.1    18.43 I 308.7 Mflops          18.50
 build_kohn_sham_pot              16  8.8    11.48 I       ---             11.36
 integrate_v_rspace               16  9.8     9.29 I       ---              9.20
 integrate_v_rspace_omp           16 10.8     5.18 I       ---              5.13
 pw_gather                        97 12.0     3.80 I  10.9 Mcopy            3.77
 pw_scatter                      112 12.4     2.32 I  20.6 Mcopy            2.29
 pw_spline3_deriv_g               96 11.8     1.11 I       ---              1.07
 init_scf_run                      1  6.0     0.91 I       ---              0.90
 scf_env_initial_rho_setup         1  7.0     0.91 I       ---              0.90
 pw_copy                         112 11.0     0.79 I 107.4 Mcopy            0.88
 qs_init                           1  3.0     0.59 I       ---              0.60
 pw_spline_scale_deriv            32 11.8     0.48 I       ---              0.54
 hartree                          16  9.8     0.56 I       ---              0.54
 pw_env_rebuild                    1  4.0     0.53 I       ---              0.52
 pw_spline2_evaluate_values_g     32 11.8     0.47 I       ---              0.51
 pw_grid_setup                     1  5.0     0.46 I       ---              0.46
 pw_sumup                         48 11.8     0.49 I  88.0 Mflops           0.46
 pw_grid_sort                      1  6.0     0.32 I       ---              0.32
 calculate_rho_core                1  6.0     0.25 I       ---              0.25
 qs_env_update_s_mstruct           1  5.0     0.25 I       ---              0.25
 pw_add                           16  9.8     0.18 I  67.5 Mflops           0.20
 -------------------------------------------------------------------------------

  **** **** ******  **  PROGRAM ENDED AT                Mon Jun 23 14:03:10 2003
 ***** ** ***  *** **   PROGRAM RAN ON                                  mars1-fe
 **    ****   ******    PROGRAM RAN BY                                     fawzi
 ***** **    ** ** **   PROGRAM PROCESS ID                                 49832
  **** **  *******  **  PROGRAM STARTED IN 
                    /gpfs/home/users.SP4/fawzi/cp2k/test-AIX-PowerPC_POWER4-0306

