 fawzi@mars1-fe has created process number                                 47594

 IO| Input file name                                                  H2O-32.inp
 IO| Output file name                                                   (stdout)
 IO| Error file name                                                    (stdout)
 IO| Library path                                                             ./
 IO| Basis set file name                                               BASIS_SET
 IO| Potential file name                                               POTENTIAL
 IO| Restart file name                                                   RESTART

  **** **** ******  **  PROGRAM STARTED AT              Tue Jun 17 13:46:35 2003
 ***** ** ***  *** **   PROGRAM STARTED ON                              mars1-fe
 **    ****   ******    PROGRAM STARTED BY                                 fawzi
 ***** **    ** ** **   PROGRAM PROCESS ID                                 47594
  **** **  *******  **  PROGRAM STARTED IN 
                                        /gpfs/home/users.SP4/fawzi/cp2k/tests/QS

 CP2K| Program compiled at                          Mon Jun 16 11:28:09 DFT 2003
 CP2K| Program compiled on                                              mars1-fe
 CP2K| Program compiled for                                   AIX-PowerPC_POWER4
 CP2K| Program name                                                           QS
 CP2K| Project name                                              (not specified)
 CP2K| Default FFT library                                               FFTESSL
 CP2K| Run type                                        WAVEFUNCTION OPTIMIZATION
 CP2K| Global print level                                                     10
 CP2K| Total number of message passing processes                               1
 CP2K| Number of threads for this process                                      1
 CP2K| This output is from process                                             0


 *******************************************************************************
 *******************************************************************************
 **                                                                           **
 **     #####                         ##              ##                      **
 **    ##   ##            ##          ##              ##                      **
 **   ##     ##                       ##            ######                    **
 **   ##     ##  ##   ##  ##   #####  ##  ##   ####   ##    #####    #####    **
 **   ##     ##  ##   ##  ##  ##      ## ##   ##      ##   ##   ##  ##   ##   **
 **   ##  ## ##  ##   ##  ##  ##      ####     ###    ##   ######   ######    **
 **    ##  ###   ##   ##  ##  ##      ## ##      ##   ##   ##       ##        **
 **     #######   #####   ##   #####  ##  ##  ####    ##    #####   ##        **
 **           ##                                                    ##        **
 **                                                                           **
 **                                                ... make the atoms dance   **
 **                                                                           **
 **            Copyright (C) by CP2K Developers Group (2000 - 2003)           **
 **                                                                           **
 *******************************************************************************
 ** G. Lippert, J. Hutter, and M. Parrinello                                  **
 ** A hybrid Gaussian and plane wave density functional scheme                **
 ** Molecular Physics, Vol. 92, Issue 3, 477-487 (1997)                       **
 *******************************************************************************

 DFT| Force calculation                                                       NO
 DFT| Cutoffs: density                                               0.10000E-09
 DFT|          gradient                                              0.10000E-07
 DFT| XC density smoothing                                                  NONE
 DFT| XC derivatives                                                          PW
 DFT| XC mesh (PW density)                                               default
 FUNCTIONAL| Exchange Functional                                            NONE
 FUNCTIONAL| Correlation Functional                                         PADE
              S. Goedecker, M. Teter and J. Hutter, Phys. Rev. B 54, 1703 (1996)

 QS| Method:                                                                 GPW
 QS| Density plane wave grid type                        NON-SPHERICAL FULLSPACE
 QS| Number of grid levels:                                                    4
 QS| Density cutoff [a.u.]:                                                100.0
 QS| Multi grid cutoff [a.u.]: 1) grid level                               100.0
 QS|                           2) grid level                                33.3
 QS|                           3) grid level                                11.1
 QS|                           4) grid level                                 3.7
 QS| Grid level progression factor:                                          3.0
 QS| Relative density cutoff [a.u.]:                                        10.0
 QS| Interaction thresholds: eps_pgf_orb:                                1.0E-05
 QS|                         eps_core_charge:                            1.0E-12
 QS|                         eps_rho_gspace:                             1.0E-10
 QS|                         eps_rho_rspace:                             1.0E-10
 QS|                         eps_gvg_rspace:                             1.0E-05
 QS|                         eps_ppl:                                    1.0E-12
 QS|                         eps_ppnl:                                   1.0E-12

 CELL| Volume [ANGSTROM**3]:                                             960.044
 CELL| Vector a [ANGSTROM]:       9.865     0.000     0.000    |a| =       9.865
 CELL| Vector b [ANGSTROM]:       0.000     9.865     0.000    |b| =       9.865
 CELL| Vector c [ANGSTROM]:       0.000     0.000     9.865    |c| =       9.865
 CELL| Angle (b,c) [degree]:                                              90.000
 CELL| Angle (a,c) [degree]:                                              90.000
 CELL| Angle (a,b) [degree]:                                              90.000
 CELL| Grid size for subcell generation                                    2.000


 TOTAL NUMBERS AND MAXIMUM NUMBERS

  Total number of

  - Atomic kinds:                       2
  - Atoms:                             96
  - Shell sets:                       128
  - Shells:                           288
  - Primitive Cartesian functions:    416
  - Cartesian basis functions:        576
  - Spherical basis functions:        544

  Maximum angular momentum quantum number of the

  - Orbital basis functions:                        2
  - Local part of the GTH pseudopotential:          2
  - Non-local part of the GTH pseudopotential:      0


 SCF PARAMETERS

  Density guess: ATOMIC

  nrebuild:              5
  max_scf:              50
  max_diis:              4
  eps_scf:            1.00E-05
  eps_diis:           1.00E-01
  eps_eigval:         1.00E-05
  eps_jacobi:         0.00E+00
  jacobi_threshold:   1.00E-07
  p_mix:              0.40
  work_syevx:         1.00
  level_shift [a.u.]: 0.00
  smear [a.u.]:       0.00


 SCF WAVEFUNCTION OPTIMIZATION

 For spin  1

  Number of electrons:                           256
  Number of occupied orbitals:                   128

  Number of orbital functions:                   544
  extrapolation method:initial_guess                 

  Step  Update method              Time         Convergence        Total energy
  -----------------------------------------------------------------------------
     1  Mixing/Diag.   0.40E+00    1.93        1.1872681417     -546.5728580070
     2  Mixing/Diag.   0.40E+00    2.79        0.7024875873     -547.9856924984
     3  Mixing/Diag.   0.40E+00    2.85        0.4173340475     -548.8437451900
     4  Mixing/Diag.   0.40E+00    2.88        0.2475798519     -549.3519536036
     5  Mixing/Diag.   0.40E+00    2.99        0.1471141626     -549.6547285824
     6  Mixing/Diag.   0.40E+00    3.09        0.0874946213     -549.8357125027
     7  DIIS/Diag.     0.56E-03    2.83        0.0515931644     -549.9440856534
     8  DIIS/Diag.     0.18E-03    2.93        0.0001052470     -550.1063817174
     9  DIIS/Diag.     0.26E-03    2.73        0.0006196920     -550.1063813952
    10  DIIS/Diag.     0.24E-03    2.83        0.0002082300     -550.1063819312
    11  DIIS/Diag.     0.24E-04    3.00        0.0000441963     -550.1063820786
    12  DIIS/Diag.     0.15E-04    2.82        0.0000709547     -550.1063821057
    13  DIIS/Diag.     0.13E-04    2.65        0.0000512098     -550.1063821177
    14  DIIS/Diag.     0.71E-05    2.79        0.0000606621     -550.1063821178
    15  DIIS/Diag.     0.34E-06    2.67        0.0000026419     -550.1063821140

  *** SCF run converged ***


  Total electronic density (r-space):       -255.9999848627        0.0000151373
  Total core charge density (r-space):       256.0000002545        0.0000002545
  Total charge density (r-space):                                  0.0000153918
  Total charge density (g-space):                                  0.0000153918

  Overlap energy of the core charge distribution:              0.00000093386465
  Self energy of the core charge distribution:             -1402.65249746927475
  Core Hamiltonian energy:                                   410.66491681925174
  Hartree energy:                                            574.20026964285785
  Exchange-correlation energy:                              -132.31907204066655
  Total energy:                                             -550.10638211396713

 -------------------------------------------------------------------------------
 -                                                                             -
 -                                T I M I N G                                  -
 -                                                                             -
 -------------------------------------------------------------------------------
 SUBROUTINE                    CALLS  ASD CPU TIME T  PERFORMANCE   ELAPSED TIME
 CP2K                              1  1.0    46.93 I       ---             46.86
 quickstep                         1  2.0    46.93 I       ---             46.82
 qs_energies                       1  3.0    45.57 I       ---             45.46
 scf_env_do_scf                    1  4.0    43.86 I       ---             43.83
 scf_iter                         15  5.0    41.83 I       ---             41.78
 calculate_rho_elec               16  6.0    18.47 I       ---             18.40
 qs_ks_update_qs_env              15  6.0    16.37 I       ---             16.30
 build_kohn_sham                  15  7.0    16.20 I       ---             16.14
 build_kohn_sham_pot              15  8.0    12.91 I       ---             12.83
 calculate_rho_elec_omp           16  7.0    12.84 I       ---             12.75
 fft_wrap_pw1pw2                 171  8.5    10.77 I       ---             10.63
 integrate_v_rspace               15  9.0    10.52 I       ---             10.51
 fft3d_s                         172  9.4     6.65 I 518.6 Mflops           6.64
 integrate_v_rspace_omp           15 10.0     5.78 I       ---              5.77
 eigensolver                      15  6.0     5.63 I       ---              5.63
 blacs_syevx                      15  7.0     4.46 I       ---              4.48
 build_kohn_sham_energy           15  8.0     3.27 I       ---              3.30
 xc_calculate_pw_new              15 10.0     2.28 I       ---              2.32
 calculate_xc_potential           15  9.0     2.28 I       ---              2.32
 pw_gather                        80  8.6     1.89 I  11.8 Mcopy            1.89
 scf_diis                         14  6.0     1.70 I       ---              1.68
 pw_scatter                       91 10.3     1.44 I  21.1 Mcopy            1.44
 qs_init                           1  3.0     1.36 I       ---              1.36
 pw_env_rebuild                    1  4.0     1.30 I       ---              1.26
 build_core_hamiltonian_matri      1  4.0     1.14 I       ---              1.07
 pw_grid_setup                     4  5.0     1.08 I       ---              1.03
 cp_fm_cholesky_reduce            15  7.0     0.96 I       ---              0.97
 pw_grid_sort                      4  6.0     0.83 I       ---              0.81
 calculate_density_matrix_spa     15  6.0     0.80 I       ---              0.79
 cp_sm_plus_fm_fm_t_new           15  7.0     0.78 I       ---              0.77
 sparse_plus_loc_loct             15  8.0     0.76 I   0.8 Gflops           0.76
 init_scf_run                      1  5.0     0.75 I       ---              0.71
 cp_fm_gemm                       28  7.0     0.64 I   3.1 Gflops           0.68
 transfer_real_matrix             16  6.0     0.61 I       ---              0.63
 scf_env_initial_rho_setup         1  6.0     0.67 I       ---              0.63
 cp_fm_symm                       28  7.0     0.70 I   3.4 Gflops           0.62
 hartree                          15  9.0     0.66 I       ---              0.60
 pw_copy                          91  9.5     0.58 I 192.6 Mcopy            0.56
 qs_env_update_s_mstruct           1  4.0     0.52 I       ---              0.51
 sm_struct_add_sm_local_block      2  6.0     0.48 I       ---              0.46
 pw_sumup                         64  7.0     0.27 I  87.8 Mflops           0.29
 pw_add                           15  9.0     0.25 I  63.5 Mflops           0.28
 calculate_rho_core                1  5.0     0.28 I       ---              0.27
 pw_zero                          31  8.0     0.23 I 103.2 Mzero            0.27
 rs_pw_transfer                  125  8.4     0.19 I       ---              0.24
 mpools_rebuild_s_sm_pools         1  5.0     0.23 I       ---              0.23
 mpools_rebuild_h_r_sm_pools       1  5.0     0.26 I       ---              0.23
 init_cube_info                    4  5.0     0.22 I       ---              0.22
 copy_real_matrix_to_full_mat     32  6.5     0.09 I       ---              0.18
 cp_fm_cholesky_restore           15  7.0     0.21 I       ---              0.18
 pw_grid_assign                    4  6.0     0.19 I       ---              0.17
 calculate_ecore                  15  7.0     0.17 I       ---              0.16
 add_vppnl                         1  5.0     0.17 I       ---              0.15
 cp_sm_mix                        15  6.0     0.12 I       ---              0.13
 cp_fm_trace                      49  7.0     0.12 I       ---              0.12
 rs_grid_zero                     65  7.0     0.10 I       ---              0.10
 -------------------------------------------------------------------------------

  **** **** ******  **  PROGRAM ENDED AT                Tue Jun 17 13:47:22 2003
 ***** ** ***  *** **   PROGRAM RAN ON                                  mars1-fe
 **    ****   ******    PROGRAM RAN BY                                     fawzi
 ***** **    ** ** **   PROGRAM PROCESS ID                                 47594
  **** **  *******  **  PROGRAM STARTED IN 
                                        /gpfs/home/users.SP4/fawzi/cp2k/tests/QS

