      64
 i =       22, E =        -8.6978576007
 ClZ         3.2309893060        3.2309893060        3.2309893060
 ClZ         3.2309893062        6.3413365139        6.3413365140
 ClZ         6.3413365139        3.2309893062        6.3413365140
 ClZ         6.3413365139        6.3413365139        3.2309893062
  KZ         6.3404596908        6.3404596908        6.3404596908
  KZ         3.2318661284        3.2318661284        6.3404596909
  KZ         3.2318661284        6.3404596909        3.2318661284
  KZ         6.3404596909        3.2318661284        3.2318661284
  K         0.1237517618        0.1237517618        0.1237517618
 Cl         0.1255697731        0.1255697731        3.2317415888
  K         3.2320855465        3.2320855465        0.1238185046
 Cl         0.1255697731        3.2317415888        0.1255697731
  K         3.2320855465        0.1238185046        3.2320855465
 Cl         3.2317415888        0.1255697731        0.1255697731
  K         0.1238185046        3.2320855465        3.2320855465
 Cl         9.4467097314        9.4467097314        9.4467097314
 Cl         6.3409890412        6.3409890412        9.4468377408
  K         9.4485770332        9.4485770332        6.3400989516
 Cl         6.3409890412        9.4468377408        6.3409890412
  K         9.4485770332        6.3400989516        9.4485770332
 Cl         9.4468377408        6.3409890412        6.3409890412
  K         6.3400989516        9.4485770332        9.4485770332
  K         0.1238185046        6.3402402726        6.3402402726
 Cl         3.2317415886        9.4467560427        9.4467560427
 Cl         0.1255697729        6.3405842308        9.4467560428
  K         3.2320855466        9.4485073124        6.3402402725
 Cl         0.1255697729        9.4467560427        6.3405842308
  K         3.2320855466        6.3402402725        9.4485073124
  K         0.1237517616        9.4485740555        9.4485740555
  K         6.3402402726        0.1238185046        6.3402402726
 Cl         9.4467560427        3.2317415886        9.4467560427
 Cl         6.3405842308        0.1255697729        9.4467560428
  K         9.4485073124        3.2320855466        6.3402402725
  K         9.4485740555        0.1237517617        9.4485740555
 Cl         9.4467560427        0.1255697729        6.3405842308
  K         6.3402402725        3.2320855466        9.4485073124
  K         0.1237487840        0.1237487840        6.3400989518
 Cl         3.2313367784        3.2313367784        9.4468377407
 Cl         0.1256160847        0.1256160847        9.4467097313
 Cl         0.1254880746        3.2313367786        6.3409890413
  K         3.2322268673        0.1237487839        9.4485770332
 Cl         3.2313367786        0.1254880746        6.3409890413
  K         0.1237487839        3.2322268673        9.4485770332
  K         6.3402402726        6.3402402726        0.1238185046
 Cl         9.4467560427        9.4467560427        3.2317415886
  K         9.4485740555        9.4485740555        0.1237517617
 Cl         6.3405842308        9.4467560428        0.1255697729
  K         9.4485073124        6.3402402725        3.2320855466
 Cl         9.4467560427        6.3405842308        0.1255697729
  K         6.3402402725        9.4485073124        3.2320855466
  K         0.1237487840        6.3400989518        0.1237487840
 Cl         3.2313367784        9.4468377407        3.2313367784
 Cl         0.1254880746        6.3409890413        3.2313367786
  K         3.2322268673        9.4485770332        0.1237487839
 Cl         0.1256160847        9.4467097313        0.1256160847
 Cl         3.2313367786        6.3409890413        0.1254880746
  K         0.1237487839        9.4485770332        3.2322268673
  K         6.3400989518        0.1237487840        0.1237487840
 Cl         9.4468377407        3.2313367784        3.2313367784
 Cl         6.3409890413        0.1254880746        3.2313367786
  K         9.4485770332        3.2322268673        0.1237487839
 Cl         6.3409890413        3.2313367786        0.1254880746
  K         9.4485770332        0.1237487839        3.2322268673
 Cl         9.4467097313        0.1256160847        0.1256160847

