17
MOL.2.pdb Energy:       0.0000000
  N        3.57300        3.90300        0.90900
  H        2.63700        3.70500        1.23000
  H        3.55400        4.74300        0.34800
  H        4.20700        3.83200        1.69200
  C        3.97000        2.84600        0.00000
  H        3.51500        1.90700        0.31400
  H        3.64000        3.09100       -1.00900
  C        5.48400        2.68700        0.00000
  O        5.99300        1.56800        0.00000
  N        6.20300        3.81100       -0.00000
  H        6.50100        4.22000        0.87500
  C        6.58000        4.48000       -1.22900
  H        5.72700        5.03800       -1.61500
  H        7.40400        5.16500       -1.03100
  C        7.02000        3.46400       -2.27300
  O        6.66700        3.58100       -3.44500
  O        7.73400        2.51600       -1.95700
