6
water_2.xyz Energy:       0.0000000
  OT       -0.75700       -5.61600       -7.10100
  HT       -1.20600       -5.71400       -6.26200
  HT        0.02400       -5.10200       -6.89600
  OT       -2.29400       -2.67700       -7.66500
  HT       -1.99800       -3.12800       -8.45600
  HT       -1.48800       -2.40300       -7.22800
