<UPF version="2.0.1">
  <PP_INFO>
    Generated in analytical, separable form
    Author: Goedecker/Hartwigsen/Hutter/Teter
    Generation date: Phys.Rev.B58, 3641 (1998); B54, 1703 (1996)
    Pseudopotential type: NC
    Element:  C
    Functional: SLA-PW-PBX-PBC

    Suggested minimum cutoff for wavefunctions:   0. Ry
    Suggested minimum cutoff for charge density:   0. Ry
    The Pseudo was generated with a Scalar-Relativistic Calculation
    Local Potential: unknown format, L component and cutoff radius: -3   0.0000

    Valence configuration: 
    nl pn  l   occ       Rcut    Rcut US       E pseu

    Generation configuration: not available.
    Converted from CPMD format using cpmd2upf v.5.0.1 - PG 10Jul2012
    Contains atomic orbitals generated by ld1.x - use with care
  </PP_INFO>
  <!--                               -->
  <!-- END OF HUMAN READABLE SECTION -->
  <!--                               -->
  <PP_HEADER generated="Generated in analytical, separable form"
             author="Goedecker/Hartwigsen/Hutter/Teter"
             date="Phys.Rev.B58, 3641 (1998); B54, 1703 (1996)"
             comment="Contains atomic orbitals generated by ld1.x - use with care"
             element=" C"
             pseudo_type="NC"
             relativistic="scalar"
             is_ultrasoft="F"
             is_paw="F"
             is_coulomb="F"
             has_so="F"
             has_wfc="F"
             has_gipaw="F"
             paw_as_gipaw="F"
             core_correction="F"
             functional="SLA-PW-PBX-PBC"
             z_valence="4.000000000000000E+000"
             total_psenergy="0.000000000000000E+000"
             wfc_cutoff="0.000000000000000E+000"
             rho_cutoff="0.000000000000000E+000"
             l_max="1"
             l_max_rho="0"
             l_local="-3"
             mesh_size="1073"
             number_of_wfc=" 2"
             number_of_proj="1"/>
  <PP_MESH dx="1.250000000000000E-002" mesh="1073" xmin="-7.000000000000000E+000" rmax="1.003075063120137E+002"
zmesh="6.000000000000000E+000">
    <PP_R type="real" size="1073" columns="4">
 1.519803275924194E-004  1.538920047781704E-004  1.558277279027637E-004  1.577877994268757E-004 
 1.597725256156700E-004  1.617822165866515E-004  1.638171863581231E-004  1.658777528982519E-004 
 1.679642381747518E-004  1.700769682051924E-004  1.722162731079395E-004  1.743824871537364E-004 
 1.765759488179350E-004  1.787970008333828E-004  1.810459902439763E-004  1.833232684588864E-004 
 1.856291913074672E-004  1.879641190948554E-004  1.903284166582679E-004  1.927224534240096E-004 
 1.951466034651957E-004  1.976012455602021E-004  2.000867632518501E-004  2.026035449073358E-004 
 2.051519837789135E-004  2.077324780653416E-004  2.103454309741024E-004  2.129912507844041E-004 
 2.156703509109747E-004  2.183831499686600E-004  2.211300718378319E-004  2.239115457306211E-004 
 2.267280062579823E-004  2.295798934976029E-004  2.324676530626665E-004  2.353917361714803E-004 
 2.383525997179791E-004  2.413507063431159E-004  2.443865245071505E-004  2.474605285628478E-004 
 2.505731988295954E-004  2.537250216684553E-004  2.569164895581584E-004  2.601481011720554E-004 
 2.634203614560362E-004  2.667337817074274E-004  2.700888796548844E-004  2.734861795392877E-004 
 2.769262121956557E-004  2.804095151360902E-004  2.839366326337623E-004  2.875081158079570E-004 
 2.911245227101866E-004  2.947864184113868E-004  2.984943750902116E-004  3.022489721224359E-004 
 3.060507961714845E-004  3.099004412801002E-004  3.137985089631629E-004  3.177456083016794E-004 
 3.217423560379515E-004  3.257893766719445E-004  3.298873025588661E-004  3.340367740079732E-004 
 3.382384393826223E-004  3.424929552015765E-004  3.468009862415882E-004  3.511632056412723E-004 
 3.555802950062847E-004  3.600529445158258E-004  3.645818530304808E-004  3.691677282014195E-004 
 3.738112865809672E-004  3.785132537345678E-004  3.832743643541560E-004  3.880953623729523E-004 
 3.929770010817055E-004  3.979200432463956E-004  4.029252612274172E-004  4.079934371002639E-004 
 4.131253627777264E-004  4.183218401336331E-004  4.235836811281430E-004  4.289117079346167E-004 
 4.343067530680831E-004  4.397696595153202E-004  4.453012808665751E-004  4.509024814489378E-004 
 4.565741364613947E-004  4.623171321115815E-004  4.681323657542521E-004  4.740207460314946E-004 
 4.799831930147072E-004  4.860206383483613E-004  4.921340253955744E-004  4.983243093855100E-004 
 5.045924575626359E-004  5.109394493378571E-004  5.173662764415514E-004  5.238739430785301E-004 
 5.304634660849445E-004  5.371358750871710E-004  5.438922126626914E-004  5.507335345029970E-004 
 5.576609095785454E-004  5.646754203057852E-004  5.717781627162891E-004  5.789702466280090E-004 
 5.862527958186881E-004  5.936269482014549E-004  6.010938560026218E-004  6.086546859417239E-004 
 6.163106194138220E-004  6.240628526740967E-004  6.319125970247679E-004  6.398610790043606E-004 
 6.479095405793550E-004  6.560592393382472E-004  6.643114486880484E-004  6.726674580532598E-004 
 6.811285730773444E-004  6.896961158267394E-004  6.983714249974299E-004  7.071558561241234E-004 
 7.160507817920566E-004  7.250575918514615E-004  7.341776936347343E-004  7.434125121763336E-004 
 7.527634904354444E-004  7.622320895214455E-004  7.718197889222076E-004  7.815280867352685E-004 
 7.913584999019130E-004  8.013125644441983E-004  8.113918357049605E-004  8.215978885908419E-004 
 8.319323178183695E-004  8.423967381631357E-004  8.529927847121093E-004  8.637221131191208E-004 
 8.745863998635641E-004  8.855873425123459E-004  8.967266599851368E-004  9.080060928229549E-004 
 9.194274034601286E-004  9.309923764996833E-004  9.427028189921846E-004  9.545605607180975E-004 
 9.665674544736911E-004  9.787253763605421E-004  9.910362260786823E-004  1.003501927223426E-003 
 1.016124427585940E-003  1.028905699457585E-003  1.041847739938093E-003  1.054952571247625E-003 
 1.068222241042730E-003  1.081658822736315E-003  1.095264415821603E-003  1.109041146200196E-003 
 1.122991166514245E-003  1.137116656482805E-003  1.151419823242422E-003  1.165902901692003E-003 
 1.180568154842020E-003  1.195417874168116E-003  1.210454379969149E-003  1.225680021729739E-003 
 1.241097178487391E-003  1.256708259204212E-003  1.272515703143327E-003  1.288521980250012E-003 
 1.304729591537629E-003  1.321141069478417E-003  1.337758978399192E-003  1.354585914882035E-003 
 1.371624508170005E-003  1.388877420577968E-003  1.406347347908590E-003  1.424037019873557E-003 
 1.441949200520106E-003  1.460086688662905E-003  1.478452318321376E-003  1.497048959162521E-003 
 1.515879516949303E-003  1.534946933994690E-003  1.554254189621388E-003  1.573804300627369E-003 
 1.593600321757252E-003  1.613645346179614E-003  1.633942505970305E-003  1.654494972601835E-003 
 1.675305957438931E-003  1.696378712240313E-003  1.717716529666790E-003  1.739322743795751E-003 
 1.761200730642109E-003  1.783353908685821E-003  1.805785739406027E-003  1.828499727821913E-003 
 1.851499423040384E-003  1.874788418810611E-003  1.898370354085563E-003  1.922248913590605E-003 
 1.946427828399240E-003  1.970910876516103E-003  1.995701883467270E-003  2.020804722898016E-003 
 2.046223317178075E-003  2.071961638014514E-003  2.098023707072333E-003  2.124413596602845E-003 
 2.151135430079979E-003  2.178193382844582E-003  2.205591682756821E-003  2.233334610856805E-003 
 2.261426502033489E-003  2.289871745702024E-003  2.318674786489605E-003  2.347840124929954E-003 
 2.377372318166543E-003  2.407275980664647E-003  2.437555784932371E-003  2.468216462250736E-003 
 2.499262803412951E-003  2.530699659472991E-003  2.562531942503572E-003  2.594764626363682E-003 
 2.627402747475750E-003  2.660451405612602E-003  2.693915764694312E-003  2.727801053595071E-003 
 2.762112566960209E-003  2.796855666033495E-003  2.832035779494844E-003  2.867658404308564E-003 
 2.903729106582252E-003  2.940253522436527E-003  2.977237358885675E-003  3.014686394729383E-003 
 3.052606481455696E-003  3.091003544155314E-003  3.129883582447401E-003  3.169252671417043E-003 
 3.209116962564488E-003  3.249482684766332E-003  3.290356145248797E-003  3.331743730573238E-003 
 3.373651907634065E-003  3.416087224669210E-003  3.459056312283290E-003  3.502565884483672E-003 
 3.546622739729529E-003  3.591233761994128E-003  3.636405921840462E-003  3.682146277510407E-003 
 3.728461976027600E-003  3.775360254314162E-003  3.822848440321488E-003  3.870933954175263E-003 
 3.919624309334851E-003  3.968927113767313E-003  4.018850071136146E-003  4.069400982005006E-003 
 4.120587745056566E-003  4.172418358326691E-003  4.224900920454158E-003  4.278043631946072E-003 
 4.331854796459225E-003  4.386342822097552E-003  4.441516222725914E-003  4.497383619300415E-003 
 4.553953741215428E-003  4.611235427667597E-003  4.669237629036971E-003  4.727969408285517E-003 
 4.787439942373239E-003  4.847658523692080E-003  4.908634561517882E-003  4.970377583480619E-003 
 5.032897237053083E-003  5.096203291058349E-003  5.160305637196149E-003  5.225214291588481E-003 
 5.290939396344659E-003  5.357491221146011E-003  5.424880164850572E-003  5.493116757117895E-003 
 5.562211660054346E-003  5.632175669879093E-003  5.703019718611005E-003  5.774754875776837E-003 
 5.847392350140840E-003  5.920943491456161E-003  5.995419792238278E-003  6.070832889560705E-003 
 6.147194566873336E-003  6.224516755843603E-003  6.302811538220847E-003  6.382091147724110E-003 
 6.462367971953668E-003  6.543654554326636E-003  6.625963596036886E-003  6.709307958039642E-003 
 6.793700663061037E-003  6.879154897632925E-003  6.965684014153320E-003  7.053301532972719E-003 
 7.142021144506698E-003  7.231856711375062E-003  7.322822270567904E-003  7.414932035638921E-003 
 7.508200398926304E-003  7.602641933801568E-003  7.698271396946687E-003  7.795103730659830E-003 
 7.893154065190155E-003  7.992437721101912E-003  8.092970211668328E-003  8.194767245295597E-003 
 8.297844727977325E-003  8.402218765779896E-003  8.507905667359069E-003  8.614921946508232E-003 
 8.723284324738735E-003  8.833009733892639E-003  8.944115318788356E-003  9.056618439899583E-003 
 9.170536676067872E-003  9.285887827249404E-003  9.402689917296229E-003  9.520961196772549E-003 
 9.640720145806414E-003  9.761985476977255E-003  9.884776138239791E-003  1.000911131588466E-002 
 1.013501043753633E-002  1.026249317518871E-002  1.039157944827891E-002  1.052228942679973E-002 
 1.065464353445127E-002  1.078866245183209E-002  1.092436711967073E-002  1.106177874209760E-002 
 1.120091878995830E-002  1.134180900416837E-002  1.148447139911043E-002  1.162892826607394E-002 
 1.177520217673827E-002  1.192331598669954E-002  1.207329283904192E-002  1.222515616795369E-002 
 1.237892970238898E-002  1.253463746977540E-002  1.269230379976839E-002  1.285195332805279E-002 
 1.301361100019219E-002  1.317730207552678E-002  1.334305213112009E-002  1.351088706575555E-002 
 1.368083310398314E-002  1.385291680021709E-002  1.402716504288507E-002  1.420360505862947E-002 
 1.438226441656176E-002  1.456317103257007E-002  1.474635317368122E-002  1.493183946247745E-002 
 1.511965888156875E-002  1.530984077812149E-002  1.550241486844392E-002  1.569741124262945E-002 
 1.589486036925828E-002  1.609479310015814E-002  1.629724067522502E-002  1.650223472730439E-002 
 1.670980728713396E-002  1.691999078834851E-002  1.713281807254773E-002  1.734832239442778E-002 
 1.756653742697740E-002  1.778749726673937E-002  1.801123643913822E-002  1.823778990387482E-002 
 1.846719306038899E-002  1.869948175339063E-002  1.893469227846063E-002  1.917286138772207E-002 
 1.941402629558283E-002  1.965822468455042E-002  1.990549471111995E-002  2.015587501173612E-002 
 2.040940470883032E-002  2.066612341693354E-002  2.092607124886621E-002  2.118928882200594E-002 
 2.145581726463404E-002  2.172569822236195E-002  2.199897386463837E-002  2.227568689133841E-002 
 2.255588053943546E-002  2.283959858975708E-002  2.312688537382588E-002  2.341778578078636E-002 
 2.371234526441894E-002  2.401060985024222E-002  2.431262614270457E-002  2.461844133246614E-002 
 2.492810320377252E-002  2.524166014192110E-002  2.555916114082142E-002  2.588065581065050E-002 
 2.620619438560461E-002  2.653582773174838E-002  2.686960735496280E-002  2.720758540899307E-002 
 2.754981470359776E-002  2.789634871280043E-002  2.824724158324502E-002  2.860254814265646E-002 
 2.896232390840753E-002  2.932662509619359E-002  2.969550862881641E-002  3.006903214507847E-002 
 3.044725400878912E-002  3.083023331788405E-002  3.121802991365952E-002  3.161070439012256E-002 
 3.200831810345903E-002  3.241093318162060E-002  3.281861253403235E-002  3.323141986142254E-002 
 3.364941966577591E-002  3.407267726041235E-002  3.450125878019211E-002  3.493523119184964E-002 
 3.537466230445719E-002  3.581962078002011E-002  3.627017614420549E-002  3.672639879720565E-002 
 3.718836002473831E-002  3.765613200918515E-002  3.812978784087042E-002  3.860940152948148E-002 
 3.909504801563295E-002  3.958680318257637E-002  4.008474386805704E-002  4.058894787632013E-002 
 4.109949399026776E-002  4.161646198376893E-002  4.213993263412442E-002  4.266998773468836E-002 
 4.320671010764860E-002  4.375018361696789E-002  4.430049318148777E-002  4.485772478819732E-002 
 4.542196550566879E-002  4.599330349766220E-002  4.657182803690123E-002  4.715762951902216E-002 
 4.775079947669836E-002  4.835143059394257E-002  4.895961672058882E-002  4.957545288695678E-002 
 5.019903531870037E-002  5.083046145184322E-002  5.146982994800333E-002  5.211724070980898E-002 
 5.277279489650889E-002  5.343659493977845E-002  5.410874455972497E-002  5.478934878109404E-002 
 5.547851394967995E-002  5.617634774894240E-002  5.688295921683229E-002  5.759845876282910E-002 
 5.832295818519258E-002  5.905657068843147E-002  5.979941090099195E-002  6.055159489316856E-002 
 6.131324019524041E-002  6.208446581583552E-002  6.286539226052618E-002  6.365614155065817E-002 
 6.445683724241690E-002  6.526760444613318E-002  6.608856984583217E-002  6.691986171902779E-002 
 6.776160995676654E-002  6.861394608392310E-002  6.947700327975143E-002  7.035091639869427E-002 
 7.123582199145446E-002  7.213185832633123E-002  7.303916541082490E-002  7.395788501351334E-002 
 7.488816068620363E-002  7.583013778636229E-002  7.678396349982766E-002  7.774978686380808E-002 
 7.872775879016915E-002  7.971803208901404E-002  8.072076149256044E-002  8.173610367931772E-002 
 8.276421729856828E-002  8.380526299515685E-002  8.485940343459157E-002  8.592680332846071E-002 
 8.700762946016936E-002  8.810205071099958E-002  8.921023808649840E-002  9.033236474319789E-002 
 9.146860601567110E-002  9.261913944392859E-002  9.378414480115932E-002  9.496380412182054E-002 
 9.615830173008115E-002  9.736782426862267E-002  9.859256072780254E-002  9.983270247518428E-002 
 1.010884432854389E-001  1.023599793706230E-001  1.036475094108367E-001  1.049512345852684E-001 
 1.062713586036289E-001  1.076080877379820E-001  1.089616308549746E-001  1.103321994484724E-001 
 1.117200076726066E-001  1.131252723752358E-001  1.145482131318287E-001  1.159890522797737E-001 
 1.174480149531189E-001  1.189253291177505E-001  1.204212256070121E-001  1.219359381577737E-001 
 1.234697034469530E-001  1.250227611284970E-001  1.265953538708281E-001  1.281877273947618E-001 
 1.298001305119009E-001  1.314328151635128E-001  1.330860364598962E-001  1.347600527202421E-001 
 1.364551255129970E-001  1.381715196967334E-001  1.399095034615346E-001  1.416693483708998E-001 
 1.434513294041763E-001  1.452557249995264E-001  1.470828170974326E-001  1.489328911847527E-001 
 1.508062363393267E-001  1.527031452751463E-001  1.546239143880922E-001  1.565688438022460E-001 
 1.585382374167857E-001  1.605324029534703E-001  1.625516520047222E-001  1.645963000823136E-001 
 1.666666666666667E-001  1.687630752567725E-001  1.708858534207382E-001  1.730353328469709E-001 
 1.752118493960041E-001  1.774157431529766E-001  1.796473584807720E-001  1.819070440738254E-001 
 1.841951530126080E-001  1.865120428187968E-001  1.888580755111378E-001  1.912336176620121E-001 
 1.936390404547139E-001  1.960747197414485E-001  1.985410361020598E-001  2.010383749034969E-001 
 2.035671263600284E-001  2.061276855942142E-001  2.087204526986441E-001  2.113458327984533E-001 
 2.140042361146237E-001  2.166960780280819E-001  2.194217791446037E-001  2.221817653605339E-001 
 2.249764679293339E-001  2.278063235289662E-001  2.306717743301253E-001  2.335732680653290E-001 
 2.365112580988763E-001  2.394862034976875E-001  2.424985691030337E-001  2.455488256031693E-001 
 2.486374496068785E-001  2.517649237179455E-001  2.549317366105632E-001  2.581383831056890E-001 
 2.613853642483616E-001  2.646731873859907E-001  2.680023662476306E-001  2.713734210242518E-001 
 2.747868784500215E-001  2.782432718846072E-001  2.817431413965154E-001  2.852870338474775E-001 
 2.888755029778993E-001  2.925091094933832E-001  2.961884211523398E-001  2.999140128547016E-001 
 3.036864667317516E-001  3.075063722370834E-001  3.113743262387039E-001  3.152909331122951E-001 
 3.192568048356495E-001  3.232725610842925E-001  3.273388293283080E-001  3.314562449303821E-001 
 3.356254512450796E-001  3.398470997193694E-001  3.441218499944145E-001  3.484503700086428E-001 
 3.528333361021126E-001  3.572714331221933E-001  3.617653545305739E-001  3.663158025116171E-001 
 3.709234880820781E-001  3.755891312022016E-001  3.803134608882174E-001  3.850972153262509E-001 
 3.899411419876653E-001  3.948459977458568E-001  3.998125489945165E-001  4.048415717673815E-001 
 4.099338518594918E-001  4.150901849499720E-001  4.203113767263582E-001  4.255982430104880E-001 
 4.309516098859745E-001  4.363723138272837E-001  4.418612018304346E-001  4.474191315453452E-001 
 4.530469714098411E-001  4.587456007853509E-001  4.645159100943086E-001  4.703588009592836E-001 
 4.762751863438608E-001  4.822659906952937E-001  4.883321500889504E-001  4.944746123745781E-001 
 5.006943373244058E-001  5.069922967831109E-001  5.133694748196721E-001  5.198268678811323E-001 
 5.263654849482948E-001  5.329863476933795E-001  5.396904906396603E-001  5.464789613231126E-001 
 5.533528204560915E-001  5.603131420930717E-001  5.673610137984701E-001  5.744975368165793E-001 
 5.817238262436405E-001  5.890410112020785E-001  5.964502350169301E-001  6.039526553944906E-001 
 6.115494446032077E-001  6.192417896568509E-001  6.270308924999853E-001  6.349179701957771E-001 
 6.429042551161627E-001  6.509909951344089E-001  6.591794538200965E-001  6.674709106365544E-001 
 6.758666611407794E-001  6.843680171858691E-001  6.929763071260017E-001  7.016928760239938E-001 
 7.105190858614699E-001  7.194563157516743E-001  7.285059621549600E-001  7.376694390969893E-001 
 7.469481783896779E-001  7.563436298549174E-001  7.658572615511151E-001  7.754905600025789E-001 
 7.852450304317906E-001  7.951221969946008E-001  8.051236030183802E-001  8.152508112431679E-001 
 8.255054040658529E-001  8.358889837874269E-001  8.464031728633472E-001  8.570496141570479E-001 
 8.678299711966418E-001  8.787459284348490E-001  8.897991915121964E-001  9.009914875235282E-001 
 9.123245652878670E-001  9.238001956216709E-001  9.354201716155267E-001  9.471863089143243E-001 
 9.591004460009556E-001  9.711644444835793E-001  9.833801893865033E-001  9.957495894447211E-001 
 1.008274577402158E+000  1.020957110313665E+000  1.033799169850811E+000  1.046802762611528E+000 
 1.059969920433639E+000  1.073302700712344E+000  1.086803186721686E+000  1.100473487940072E+000 
 1.114315740379879E+000  1.128332106921213E+000  1.142524777649864E+000  1.156895970199506E+000 
 1.171447930098216E+000  1.186182931119333E+000  1.201103275636745E+000  1.216211294984639E+000 
 1.231509349821776E+000  1.246999830500347E+000  1.262685157439475E+000  1.278567781503406E+000 
 1.294650184384463E+000  1.310934878990816E+000  1.327424409839129E+000  1.344121353452146E+000 
 1.361028318761276E+000  1.378147947514246E+000  1.395482914687878E+000  1.413035928906063E+000 
 1.430809732862983E+000  1.448807103751668E+000  1.467030853697936E+000  1.485483830199790E+000 
 1.504168916572355E+000  1.523089032398388E+000  1.542247133984483E+000  1.561646214822989E+000 
 1.581289306059755E+000  1.601179476967751E+000  1.621319835426648E+000  1.641713528408432E+000 
 1.662363742469121E+000  1.683273704246676E+000  1.704446680965167E+000  1.725885980945282E+000 
 1.747594954121263E+000  1.769576992564335E+000  1.791835531012727E+000  1.814374047408357E+000 
 1.837196063440268E+000  1.860305145094896E+000  1.883704903213265E+000  1.907398994055188E+000 
 1.931391119870566E+000  1.955685029477869E+000  1.980284518849901E+000  2.005193431706923E+000 
 2.030415660117246E+000  2.055955145105377E+000  2.081815877267802E+000  2.108001897396539E+000 
 2.134517297110507E+000  2.161366219494857E+000  2.188552859748337E+000  2.216081465838798E+000 
 2.243956339166949E+000  2.272181835238461E+000  2.300762364344517E+000  2.329702392250940E+000 
 2.359006440895968E+000  2.388679089096823E+000  2.418724973265154E+000  2.449148788131491E+000 
 2.479955287478807E+000  2.511149284885299E+000  2.542735654476528E+000  2.574719331687005E+000 
 2.607105314031363E+000  2.639898661885237E+000  2.673104499275946E+000  2.706728014683141E+000 
 2.740774461849510E+000  2.775249160601692E+000  2.810157497681507E+000  2.845504927587644E+000 
 2.881296973427942E+000  2.917539227782382E+000  2.954237353576942E+000  2.991397084968442E+000 
 3.029024228240511E+000  3.067124662710842E+000  3.105704341649836E+000  3.144769293210815E+000 
 3.184325621371943E+000  3.224379506889969E+000  3.264937208266000E+000  3.306005062723389E+000 
 3.347589487197946E+000  3.389696979340604E+000  3.432334118532673E+000  3.475507566913903E+000 
 3.519224070423438E+000  3.563490459853892E+000  3.608313651918678E+000  3.653700650332745E+000 
 3.699658546906941E+000  3.746194522656104E+000  3.793315848921123E+000  3.841029888505098E+000 
 3.889344096823787E+000  3.938266023070538E+000  3.987803311395858E+000  4.037963702101831E+000 
 4.088755032851561E+000  4.140185239893808E+000  4.192262359303062E+000  4.244994528235183E+000 
 4.298389986198845E+000  4.352457076342996E+000  4.407204246760467E+000  4.462640051808022E+000 
 4.518773153442985E+000  4.575612322576686E+000  4.633166440444946E+000  4.691444499995776E+000 
 4.750455607294549E+000  4.810208982946839E+000  4.870713963539159E+000  4.931980003097828E+000 
 4.994016674566171E+000  5.056833671300322E+000  5.120440808583822E+000  5.184848025161279E+000 
 5.250065384791325E+000  5.316103077819085E+000  5.382971422768449E+000  5.450680867954362E+000 
 5.519241993115387E+000  5.588665511066825E+000  5.658962269374594E+000  5.730143252050200E+000 
 5.802219581267008E+000  5.875202519098093E+000  5.949103469275983E+000  6.023933978974491E+000 
 6.099705740613001E+000  6.176430593683432E+000  6.254120526600169E+000  6.332787678573297E+000 
 6.412444341505359E+000  6.493102961911998E+000  6.574776142866759E+000  6.657476645970326E+000 
 6.741217393344569E+000  6.826011469651637E+000  6.911872124138462E+000  6.998812772707002E+000 
 7.086847000010468E+000  7.175988561575990E+000  7.266251385953922E+000  7.357649576894208E+000 
 7.450197415550143E+000  7.543909362709798E+000  7.638800061055583E+000  7.734884337452166E+000 
 7.832177205263218E+000  7.930693866697283E+000  8.030449715183140E+000  8.131460337775072E+000 
 8.233741517588369E+000  8.337309236265462E+000  8.442179676473112E+000  8.548369224430955E+000 
 8.655894472471912E+000  8.764772221634745E+000  8.875019484289274E+000  8.986653486794594E+000 
 9.099691672190714E+000  9.214151702924072E+000  9.330051463607360E+000  9.447409063813970E+000 
 9.566242840907707E+000  9.686571362908007E+000  9.808413431391235E+000  9.931788084428499E+000 
 1.005671459956033E+001  1.018321249680890E+001  1.031130154172799E+001  1.044100174849148E+001 
 1.057233338302056E+001  1.070531696615032E+001  1.083997327683617E+001  1.097632335540063E+001 
 1.111438850682087E+001  1.125419030405769E+001  1.139575059142636E+001  1.153909148800977E+001 
 1.168423539111465E+001  1.183120497977116E+001  1.198002321827651E+001  1.213071335978328E+001 
 1.228329894993264E+001  1.243780383053350E+001  1.259425214328778E+001  1.275266833356265E+001 
 1.291307715421015E+001  1.307550366943486E+001  1.323997325871023E+001  1.340651162074422E+001 
 1.357514477749469E+001  1.374589907823550E+001  1.391880120367355E+001  1.409387817011768E+001 
 1.427115733370011E+001  1.445066639465082E+001  1.463243340162581E+001  1.481648675608972E+001 
 1.500285521675365E+001  1.519156790406874E+001  1.538265430477631E+001  1.557614427651528E+001 
 1.577206805248736E+001  1.597045624618116E+001  1.617133985615557E+001  1.637475027088334E+001 
 1.658071927365564E+001  1.678927904754819E+001  1.700046218044996E+001  1.721430167015514E+001 
 1.743083092951904E+001  1.765008379167899E+001  1.787209451534076E+001  1.809689779013162E+001 
 1.832452874202060E+001  1.855502293880706E+001  1.878841639567820E+001  1.902474558083651E+001 
 1.926404742119796E+001  1.950635930816199E+001  1.975171910345389E+001  2.000016514504091E+001 
 2.025173625312249E+001  2.050647173619611E+001  2.076441139719924E+001  2.102559553972869E+001 
 2.129006497433815E+001  2.155786102491483E+001  2.182902553513645E+001  2.210360087500944E+001 
 2.238162994748926E+001  2.266315619518416E+001  2.294822360714312E+001  2.323687672572922E+001 
 2.352916065357950E+001  2.382512106065234E+001  2.412480419136350E+001  2.442825687181186E+001 
 2.473552651709612E+001  2.504666113872350E+001  2.536170935211160E+001  2.568072038418480E+001 
 2.600374408106585E+001  2.633083091586460E+001  2.666203199656445E+001  2.699739907400806E+001 
 2.733698454998364E+001  2.768084148541269E+001  2.802902360864093E+001  2.838158532383352E+001 
 2.873858171947572E+001  2.910006857698072E+001  2.946610237940541E+001  2.983674032027614E+001 
 3.021204031252523E+001  3.059206099754000E+001  3.097686175432569E+001  3.136650270878341E+001 
 3.176104474310503E+001  3.216054950528610E+001  3.256507941875849E+001  3.297469769214426E+001 
 3.338946832913197E+001  3.380945613847751E+001  3.423472674413056E+001  3.466534659548844E+001 
 3.510138297777909E+001  3.554290402257434E+001  3.598997871843572E+001  3.644267692169403E+001 
 3.690106936736453E+001  3.736522768019952E+001  3.783522438587968E+001  3.831113292234651E+001 
 3.879302765127705E+001  3.928098386970310E+001  3.977507782177661E+001  4.027538671068280E+001 
 4.078198871070344E+001  4.129496297943172E+001  4.181438967014076E+001  4.234034994430784E+001 
 4.287292598429583E+001  4.341220100619450E+001  4.395825927282321E+001  4.451118610689702E+001 
 4.507106790435879E+001  4.563799214787843E+001  4.621204742052237E+001  4.679332341959492E+001 
 4.738191097065349E+001  4.797790204170051E+001  4.858138975755336E+001  4.919246841439542E+001 
 4.981123349451010E+001  5.043778168119997E+001  5.107221087389405E+001  5.171462020344440E+001 
 5.236511004761575E+001  5.302378204676967E+001  5.369073911974609E+001  5.436608547994467E+001 
 5.504992665160815E+001  5.574236948631088E+001  5.644352217965459E+001  5.715349428817407E+001 
 5.787239674645579E+001  5.860034188447147E+001  5.933744344512991E+001  6.008381660204962E+001 
 6.083957797755482E+001  6.160484566089815E+001  6.237973922671203E+001  6.316437975369265E+001 
 6.395888984351870E+001  6.476339364000813E+001  6.557801684851601E+001  6.640288675557599E+001 
 6.723813224878926E+001  6.808388383696342E+001  6.894027367050479E+001  6.980743556206733E+001 
 7.068550500746076E+001  7.157461920682239E+001  7.247491708605477E+001  7.338653931853315E+001 
 7.430962834708619E+001  7.524432840625259E+001  7.619078554481823E+001  7.714914764863660E+001 
 7.811956446373617E+001  7.910218761971875E+001  8.009717065345156E+001  8.110466903305793E+001 
 8.212484018220947E+001  8.315784350472367E+001  8.420384040947151E+001  8.526299433559737E+001 
 8.633547077805707E+001  8.742143731347674E+001  8.852106362633685E+001  8.963452153548616E+001 
 9.076198502098823E+001  9.190363025130654E+001  9.305963561083099E+001  9.423018172775086E+001 
 9.541545150227857E+001  9.661563013522773E+001  9.783090515695157E+001  9.906146645664471E+001 
 1.003075063120137E+002
    </PP_R>
    <PP_RAB type="real" size="1073" columns="4">
 1.899754094905242E-006  1.923650059727130E-006  1.947846598784546E-006  1.972347492835946E-006 
 1.997156570195875E-006  2.022277707333144E-006  2.047714829476539E-006  2.073471911228149E-006 
 2.099552977184397E-006  2.125962102564906E-006  2.152703413849244E-006  2.179781089421705E-006 
 2.207199360224188E-006  2.234962510417285E-006  2.263074878049704E-006  2.291540855736080E-006 
 2.320364891343340E-006  2.349551488685692E-006  2.379105208228349E-006  2.409030667800121E-006 
 2.439332543314947E-006  2.470015569502527E-006  2.501084540648127E-006  2.532544311341698E-006 
 2.564399797236419E-006  2.596655975816770E-006  2.629317887176280E-006  2.662390634805051E-006 
 2.695879386387184E-006  2.729789374608250E-006  2.764125897972899E-006  2.798894321632764E-006 
 2.834100078224779E-006  2.869748668720036E-006  2.905845663283331E-006  2.942396702143504E-006 
 2.979407496474739E-006  3.016883829288949E-006  3.054831556339382E-006  3.093256607035598E-006 
 3.132164985369943E-006  3.171562770855691E-006  3.211456119476980E-006  3.251851264650692E-006 
 3.292754518200452E-006  3.334172271342842E-006  3.376110995686056E-006  3.418577244241096E-006 
 3.461577652445696E-006  3.505118939201128E-006  3.549207907922029E-006  3.593851447599463E-006 
 3.639056533877333E-006  3.684830230142335E-006  3.731179688627645E-006  3.778112151530448E-006 
 3.825634952143557E-006  3.873755516001253E-006  3.922481362039536E-006  3.971820103770993E-006 
 4.021779450474394E-006  4.072367208399306E-006  4.123591281985827E-006  4.175459675099665E-006 
 4.227980492282779E-006  4.281161940019706E-006  4.335012328019853E-006  4.389540070515904E-006 
 4.444753687578559E-006  4.500661806447823E-006  4.557273162881010E-006  4.614596602517744E-006 