<UPF version="2.0.1">
  <PP_INFO>
    Generated in analytical, separable form
    Author: Goedecker/Hartwigsen/Hutter/Teter
    Generation date: Phys.Rev.B58, 3641 (1998); B54, 1703 (1996)
    Pseudopotential type: NC
    Element:  H
    Functional: SLA-PW-PBX-PBC

    Suggested minimum cutoff for wavefunctions:   0. Ry
    Suggested minimum cutoff for charge density:   0. Ry
    The Pseudo was generated with a Scalar-Relativistic Calculation
    Local Potential: unknown format, L component and cutoff radius: -3   0.0000

    Valence configuration: 
    nl pn  l   occ       Rcut    Rcut US       E pseu

    Generation configuration: not available.
    Converted from CPMD format using cpmd2upf v.5.0.1 - PG 10Jul2012
    Contains atomic orbitals generated by ld1.x - use with care
  </PP_INFO>
  <!--                               -->
  <!-- END OF HUMAN READABLE SECTION -->
  <!--                               -->
  <PP_HEADER generated="Generated in analytical, separable form"
             author="Goedecker/Hartwigsen/Hutter/Teter"
             date="Phys.Rev.B58, 3641 (1998); B54, 1703 (1996)"
             comment="Contains atomic orbitals generated by ld1.x - use with care"
             element=" H"
             pseudo_type="NC"
             relativistic="scalar"
             is_ultrasoft="F"
             is_paw="F"
             is_coulomb="F"
             has_so="F"
             has_wfc="F"
             has_gipaw="F"
             paw_as_gipaw="F"
             core_correction="F"
             functional="SLA-PW-PBX-PBC"
             z_valence="1.000000000000000E+000"
             total_psenergy="0.000000000000000E+000"
             wfc_cutoff="0.000000000000000E+000"
             rho_cutoff="0.000000000000000E+000"
             l_max="-1"
             l_max_rho="0"
             l_local="-3"
             mesh_size="929"
             number_of_wfc=" 1"
             number_of_proj="0"/>
  <PP_MESH dx="1.250000000000000E-002" mesh="929" xmin="-7.000000000000000E+000" rmax="9.948431564193386E+001"
zmesh="1.000000000000000E+000">
    <PP_R type="real" size="929" columns="4">
 9.118819655545162E-004  9.233520286690222E-004  9.349663674165822E-004  9.467267965612540E-004 
 9.586351536940199E-004  9.706932995199089E-004  9.829031181487387E-004  9.952665173895113E-004 
 1.007785429048510E-003  1.020461809231155E-003  1.033297638647637E-003  1.046294922922419E-003 
 1.059455692907610E-003  1.072782005000297E-003  1.086275941463858E-003  1.099939610753318E-003 
 1.113775147844803E-003  1.127784714569132E-003  1.141970499949608E-003  1.156334720544058E-003 
 1.170879620791174E-003  1.185607473361213E-003  1.200520579511101E-003  1.215621269444015E-003 
 1.230911902673481E-003  1.246394868392050E-003  1.262072585844615E-003  1.277947504706424E-003 
 1.294022105465848E-003  1.310298899811960E-003  1.326780431026992E-003  1.343469274383727E-003 
 1.360368037547894E-003  1.377479360985617E-003  1.394805918375999E-003  1.412350417028882E-003 
 1.430115598307874E-003  1.448104238058696E-003  1.466319147042903E-003  1.484763171377087E-003 
 1.503439192977572E-003  1.522350130010732E-003  1.541498937348950E-003  1.560888607032332E-003 
 1.580522168736217E-003  1.600402690244564E-003  1.620533277929307E-003  1.640917077235726E-003 
 1.661557273173934E-003  1.682457090816541E-003  1.703619795802574E-003  1.725048694847742E-003 
 1.746747136261120E-003  1.768718510468321E-003  1.790966250541270E-003  1.813493832734615E-003 
 1.836304777028907E-003  1.859402647680601E-003  1.882791053778977E-003  1.906473649810077E-003 
 1.930454136227709E-003  1.954736260031667E-003  1.979323815353197E-003  2.004220644047839E-003 
 2.029430636295734E-003  2.054957731209459E-003  2.080805917449529E-003  2.106979233847634E-003 
 2.133481770037708E-003  2.160317667094955E-003  2.187491118182885E-003  2.215006369208517E-003 
 2.242867719485803E-003  2.271079522407407E-003  2.299646186124936E-003  2.328572174237714E-003 
 2.357862006490233E-003  2.387520259478373E-003  2.417551567364503E-003  2.447960622601583E-003 
 2.478752176666358E-003  2.509931040801799E-003  2.541502086768858E-003  2.573470247607700E-003 
 2.605840518408498E-003  2.638617957091922E-003  2.671807685199451E-003  2.705414888693627E-003 
 2.739444818768368E-003  2.773902792669489E-003  2.808794194525513E-003  2.844124476188968E-003 
 2.879899158088243E-003  2.916123830090168E-003  2.952804152373447E-003  2.989945856313060E-003 
 3.027554745375815E-003  3.065636696027143E-003  3.104197658649309E-003  3.143243658471180E-003 
 3.182780796509667E-003  3.222815250523026E-003  3.263353275976148E-003  3.304401207017982E-003 
 3.345965457471272E-003  3.388052521834712E-003  3.430668976297734E-003  3.473821479768054E-003 
 3.517516774912128E-003  3.561761689208730E-003  3.606563136015730E-003  3.651928115650344E-003 
 3.697863716482932E-003  3.744377116044580E-003  3.791475582148608E-003  3.839166474026164E-003 
 3.887457243476130E-003  3.936355436029483E-003  3.985868692128290E-003  4.036004748319558E-003 
 4.086771438464067E-003  4.138176694960437E-003  4.190228549984579E-003  4.242935136744740E-003 
 4.296304690752340E-003  4.350345551108769E-003  4.405066161808406E-003  4.460475073058002E-003 
 4.516580942612666E-003  4.573392537128673E-003  4.630918733533246E-003  4.689168520411611E-003 
 4.748150999411478E-003  4.807875386665190E-003  4.868351014229763E-003  4.929587331545052E-003 
 4.991593906910217E-003  5.054380428978814E-003  5.117956708272656E-003  5.182332678714725E-003 
 5.247518399181385E-003  5.313524055074076E-003  5.380359959910820E-003  5.448036556937729E-003 
 5.516564420760772E-003  5.585954258998100E-003  5.656216913953108E-003  5.727363364308585E-003 
 5.799404726842147E-003  5.872352258163252E-003  5.946217356472094E-003  6.021011563340559E-003 
 6.096746565515638E-003  6.173434196745507E-003  6.251086439628561E-003  6.329715427485747E-003 
 6.409333446256383E-003  6.489952936417887E-003  6.571586494929619E-003  6.654246877201174E-003 
 6.737946999085467E-003  6.822699938896827E-003  6.908518939454532E-003  6.995417410152017E-003 
 7.083408929052118E-003  7.172507245008699E-003  7.262726279814891E-003  7.354080130378436E-003 
 7.446583070924344E-003  7.540249555225269E-003  7.635094218859962E-003  7.731131881500070E-003 
 7.828377549225773E-003  7.926846416870503E-003  8.026553870395154E-003  8.127515489292211E-003 
 8.229747049020030E-003  8.333264523467809E-003  8.438084087451538E-003  8.544222119241340E-003 
 8.651695203120634E-003  8.760520131977428E-003  8.870713909928258E-003  8.982293754975125E-003 
 9.095277101695816E-003  9.209681603968140E-003  9.325525137728326E-003  9.442825803764212E-003 
 9.561601930543513E-003  9.681872077077684E-003  9.803655035821828E-003  9.926969835611012E-003 
 1.005183574463359E-002  1.017827227344188E-002  1.030629917800074E-002  1.043593646277450E-002 
 1.056720438385265E-002  1.070012345211493E-002  1.083471443643616E-002  1.097099836693148E-002 
 1.110899653824231E-002  1.124873051286366E-002  1.139022212451338E-002  1.153349348154363E-002 
 1.167856697039544E-002  1.182546525909662E-002  1.197421130080362E-002  1.212482833738810E-002 
 1.227733990306845E-002  1.243176982808708E-002  1.258814224243400E-002  1.274648157961707E-002 
 1.290681258047987E-002  1.306916029706749E-002  1.323355009654093E-002  1.340000766514083E-002 
 1.356855901220093E-002  1.373923047421214E-002  1.391204871893763E-002  1.408704074957972E-002 
 1.426423390899926E-002  1.444365588398788E-002  1.462533470959422E-002  1.480929877350441E-002 
 1.499557682047770E-002  1.518419795683795E-002  1.537519165502143E-002  1.556858775818209E-002 
 1.576441648485450E-002  1.596270843367561E-002  1.616349458816587E-002  1.636680632157043E-002 
 1.657267540176125E-002  1.678113399620097E-002  1.699221467696907E-002  1.720595042585138E-002 
 1.742237463949351E-002  1.764152113461916E-002  1.786342415331405E-002  1.808811836837630E-002 
 1.831563888873418E-002  1.854602126493188E-002  1.877930149468441E-002  1.901551602850226E-002 
 1.925470177538693E-002  1.949689610859799E-002  1.974213687149278E-002  1.999046238343943E-002 
 2.024191144580439E-002  2.049652334801526E-002  2.075433787369974E-002  2.101539530690203E-002 
 2.127973643837718E-002  2.154740257196477E-002  2.181843553104277E-002  2.209287766506244E-002 
 2.237077185616560E-002  2.265216152588497E-002  2.293709064192893E-002  2.322560372505158E-002 
 2.351774585600911E-002  2.381356268260388E-002  2.411310042681688E-002  2.441640589203004E-002 
 2.472352647033940E-002  2.503451014996015E-002  2.534940552272495E-002  2.566826179167643E-002 
 2.599112877875535E-002  2.631805693258531E-002  2.664909733635549E-002  2.698430171580249E-002 
 2.732372244729257E-002  2.766741256600558E-002  2.801542577422182E-002  2.836781644971310E-002 
 2.872463965423943E-002  2.908595114215248E-002  2.945180736910729E-002  2.982226550088371E-002 
 3.019738342231850E-002  3.057721974635010E-002  3.096183382317689E-002  3.135128574953089E-002 
 3.174563637806795E-002  3.214494732687607E-002  3.254928098910343E-002  3.295870054270737E-002 
 3.337326996032608E-002  3.379305401927456E-002  3.421811831166603E-002  3.464852925466103E-002 
 3.508435410084504E-002  3.552566094873696E-002  3.597251875342967E-002  3.642499733736423E-002 
 3.688316740124001E-002  3.734710053506162E-002  3.781686922932508E-002  3.829254688634466E-002 
 3.877420783172201E-002  3.926192732595982E-002  3.975578157622132E-002  4.025584774823785E-002 
 4.076220397836623E-002  4.127492938579755E-002  4.179410408491992E-002  4.231980919783632E-002 
 4.285212686704019E-002  4.339114026825037E-002  4.393693362340742E-002  4.448959221383352E-002 
 4.504920239355782E-002  4.561585160280941E-002  4.618962838168012E-002  4.677062238395898E-002 
 4.735892439114093E-002  4.795462632661147E-002  4.855782127000997E-002  4.916860347177358E-002 
 4.978706836786394E-002  5.041331259467938E-002  5.104743400415442E-002  5.168953167904939E-002 
 5.233970594843241E-002  5.299805840335583E-002  5.366469191273014E-002  5.433971063939749E-002 
 5.502322005640723E-002  5.571532696349642E-002  5.641613950377737E-002  5.712576718063529E-002 
 5.784432087483848E-002  5.857191286186353E-002  5.930865682943875E-002  6.005466789530797E-002 
 6.081006262521797E-002  6.157495905113224E-002  6.234947668967343E-002  6.313373656079840E-002 
 6.392786120670760E-002  6.473197471099255E-002  6.554620271802436E-002  6.637067245258560E-002 
 6.720551273974978E-002  6.805085402501022E-002  6.890682839466258E-002  6.977356959644367E-002 
 7.065121306042960E-002  7.153989592019726E-002  7.243975703425150E-002  7.335093700772213E-002 
 7.427357821433390E-002  7.520782481865240E-002  7.615382279861035E-002  7.711171996831674E-002 
 7.808166600115317E-002  7.906381245316069E-002  8.005831278672054E-002  8.106532239453328E-002 
 8.208499862389883E-002  8.311750080130256E-002  8.416299025731040E-002  8.522163035177684E-002 
 8.629358649937054E-002  8.737902619542043E-002  8.847811904208731E-002  8.959103677486471E-002 
 9.071795328941251E-002  9.185904466872893E-002  9.301448921066353E-002  9.418446745577669E-002 
 9.536916221554965E-002  9.656875860094882E-002  9.778344405135009E-002  9.901340836382634E-002 
 1.002588437228037E-001  1.015199447300911E-001  1.027969084352864E-001  1.040899343665667E-001 
 1.053992245618644E-001  1.067249836004362E-001  1.080674186348293E-001  1.094267394232489E-001 
 1.108031583623339E-001  1.121968905203438E-001  1.136081536707638E-001  1.150371683263324E-001 
 1.164841577734970E-001  1.179493481073025E-001  1.194329682667197E-001  1.209352500704167E-001 
 1.224564282529819E-001  1.239967405016012E-001  1.255564274931973E-001  1.271357329320356E-001 
 1.287349035878042E-001  1.303541893341717E-001  1.319938431878302E-001  1.336541213480305E-001 
 1.353352832366127E-001  1.370375915385425E-001  1.387613122429553E-001  1.405067146847181E-001 
 1.422740715865136E-001  1.440636591014533E-001  1.458757568562274E-001  1.477106479947969E-001 
 1.495686192226351E-001  1.514499608515266E-001  1.533549668449285E-001  1.552839348639030E-001 
 1.572371663136277E-001  1.592149663904903E-001  1.612176441297768E-001  1.632455124539584E-001 
 1.652988882215866E-001  1.673780922768026E-001  1.694834494994701E-001  1.716152888559388E-001 
 1.737739434504452E-001  1.759597505771616E-001  1.781730517728985E-001  1.804141928704708E-001 
 1.826835240527347E-001  1.849813999073043E-001  1.873081794819571E-001  1.896642263407353E-001 
 1.920499086207542E-001  1.944655990897236E-001  1.969116752041941E-001  1.993885191685352E-001 
 2.018965179946555E-001  2.044360635624741E-001  2.070075526811527E-001  2.096113871510979E-001 
 2.122479738267432E-001  2.149177246801207E-001  2.176210568652329E-001  2.203583927832339E-001 
 2.231301601484299E-001  2.259367920551109E-001  2.287787270452225E-001  2.316564091768889E-001 
 2.345702880937977E-001  2.375208190954582E-001  2.405084632083422E-001  2.435336872579208E-001 
 2.465969639416065E-001  2.496987719026136E-001  2.528395958047465E-001  2.560199264081301E-001 
 2.592402606458916E-001  2.625011017018073E-001  2.658029590889266E-001  2.691463487291839E-001 
 2.725317930340127E-001  2.759598209859732E-001  2.794309682214074E-001  2.829457771141329E-001 
 2.865047968601901E-001  2.901085835636554E-001  2.937577003235329E-001  2.974527173217407E-001 
 3.011942119122022E-001  3.049827687110593E-001  3.088189796880200E-001  3.127034442588539E-001 
 3.166367693790533E-001  3.206195696386707E-001  3.246524673583498E-001  3.287360926865642E-001 
 3.328710836980797E-001  3.370580864936544E-001  3.412977553009938E-001  3.455907525769746E-001 
 3.499377491111555E-001  3.543394241305888E-001  3.587964654059517E-001  3.633095693590114E-001 
 3.678794411714424E-001  3.725067948950131E-001  3.771923535631571E-001  3.819368493039491E-001 
 3.867410234545013E-001  3.916056266767991E-001  3.965314190749930E-001  4.015191703141668E-001 
 4.065696597405992E-001  4.116836765035386E-001  4.168620196785086E-001  4.221054983921656E-001 
 4.274149319487268E-001  4.327911499579874E-001  4.382349924649494E-001  4.437473100810800E-001 
 4.493289641172218E-001  4.549808267181737E-001  4.607037809989660E-001  4.664987211828485E-001 
 4.723665527410149E-001  4.783081925340842E-001  4.843245689553626E-001  4.904166220759063E-001 
 4.965853037914097E-001  5.028315779709411E-001  5.091564206075494E-001  5.155608199707643E-001 
 5.220457767610162E-001  5.286123042659975E-001  5.352614285189904E-001  5.419941884591873E-001 
 5.488116360940266E-001  5.557148366635716E-001  5.627048688069559E-001  5.697828247309232E-001 
 5.769498103804869E-001  5.842069456117360E-001  5.915553643668152E-001  5.989962148511057E-001 
 6.065306597126336E-001  6.141598762237380E-001  6.218850564650203E-001  6.297074075116103E-001 
 6.376281516217736E-001  6.456485264278923E-001  6.537697851298475E-001  6.619931966908342E-001 
 6.703200460356395E-001  6.787516342514146E-001  6.872892787909725E-001  6.959343136786422E-001 
 7.046880897187137E-001  7.135519747065028E-001  7.225273536420724E-001  7.316156289466421E-001 
 7.408182206817182E-001  7.501365667709821E-001  7.595721232249688E-001  7.691263643685708E-001 
 7.788007830714052E-001  7.885968909810769E-001  7.985162187593774E-001  8.085603163214528E-001 
 8.187307530779822E-001  8.290291181804007E-001  8.394570207692077E-001  8.500160902253985E-001 
 8.607079764250581E-001  8.715343499971582E-001  8.824969025845958E-001  8.935973471085160E-001 
 9.048374180359600E-001  9.162188716508780E-001  9.277434863285532E-001  9.394130628134761E-001 
 9.512294245007143E-001  9.631944177208221E-001  9.753099120283331E-001  9.875778004938818E-001 
 1.000000000000000E+000  1.012578451540635E+000  1.025315120524429E+000  1.038211997081826E+000 
 1.051271096376025E+000  1.064494458917860E+000  1.077884150884632E+000  1.091442264442952E+000 
 1.105170918075648E+000  1.119072256912781E+000  1.133148453066827E+000  1.147401705972073E+000 
 1.161834242728284E+000  1.176448318448691E+000  1.191246216612359E+000  1.206230249420981E+000 
 1.221402758160170E+000  1.236766113565285E+000  1.252322716191865E+000  1.268074996790720E+000 
 1.284025416687742E+000  1.300176468168492E+000  1.316530674867622E+000  1.333090592163203E+000 
 1.349858807576004E+000  1.366837941173797E+000  1.384030645980752E+000  1.401439608391974E+000 
 1.419067548593258E+000  1.436917220986125E+000  1.454991414618202E+000  1.473292953619016E+000 
 1.491824697641271E+000  1.510589542307673E+000  1.529590419663379E+000  1.548830298634134E+000 
 1.568312185490169E+000  1.588039124315944E+000  1.608014197485784E+000  1.628240526145511E+000 
 1.648721270700129E+000  1.669459631307644E+000  1.690458848379092E+000  1.711722203084865E+000 
 1.733253017867396E+000  1.755054656960299E+000  1.777130526914039E+000  1.799484077128209E+000 
 1.822118800390510E+000  1.845038233422501E+000  1.868245957432223E+000  1.891745598673770E+000 
 1.915540829013897E+000  1.939635366505755E+000  1.964032975969848E+000  1.988737469582293E+000 
 2.013752707470478E+000  2.039082598316216E+000  2.064731099966487E+000  2.090702220051857E+000 
 2.117000016612676E+000  2.143628598733160E+000  2.170592127183443E+000  2.197894815069703E+000 
 2.225540928492469E+000  2.253534787213209E+000  2.281880765329305E+000  2.310583291957505E+000 
 2.339646851925992E+000  2.369075986475141E+000  2.398875293967099E+000  2.429049430604289E+000 
 2.459603111156951E+000  2.490541109699832E+000  2.521868260358149E+000  2.553589458062928E+000 
 2.585709659315847E+000  2.618233882963702E+000  2.651167210982608E+000  2.684514789272071E+000 
 2.718281828459046E+000  2.752473604712105E+000  2.787095460565852E+000  2.822152805755702E+000 
 2.857651118063165E+000  2.893595944171762E+000  2.929992900533703E+000  2.966847674247469E+000 
 3.004166023946435E+000  3.041953780698665E+000  3.080216848918033E+000  3.118961207286794E+000 
 3.158192909689769E+000  3.197918086160277E+000  3.238142943837962E+000  3.278873767938675E+000 
 3.320116922736549E+000  3.361878852558430E+000  3.404166082790821E+000  3.446985220899476E+000 
 3.490342957461843E+000  3.534246067212471E+000  3.578701410101580E+000  3.623715932366944E+000 
 3.669296667619246E+000  3.715450737941106E+000  3.762185354999912E+000  3.809507821174662E+000 
 3.857425530696976E+000  3.905945970806454E+000  3.955076722920579E+000  4.004825463819326E+000 
 4.055199966844676E+000  4.106208103115215E+000  4.157857842756010E+000  4.210157256143963E+000 
 4.263114515168819E+000  4.316737894510046E+000  4.371035772929760E+000  4.426016634581936E+000 
 4.481689070338067E+000  4.538061779129505E+000  4.595143569306691E+000  4.652943360015473E+000 
 4.711470182590744E+000  4.770733181967605E+000  4.830741618110281E+000  4.891504867459007E+000 
 4.953032424395118E+000  5.015333902724562E+000  5.078419037180083E+000  5.142297684942288E+000 
 5.206979827179851E+000  5.272475570609094E+000  5.338795149073179E+000  5.405948925141169E+000 
 5.473947391727202E+000  5.542801173730026E+000  5.612521029693160E+000  5.683117853485946E+000 
 5.754602676005733E+000  5.826986666901476E+000  5.900281136319020E+000  5.974497536668327E+000 
 6.049647464412949E+000  6.125742661881989E+000  6.202795019104868E+000  6.280816575669167E+000 
 6.359819522601835E+000  6.439816204274062E+000  6.520819120330115E+000  6.602840927640430E+000 
 6.685894442279273E+000  6.769992641527280E+000  6.855148665899182E+000  6.941375821197038E+000 
 7.028687580589296E+000  7.117097586715999E+000  7.206619653820471E+000  7.297267769907835E+000 
 7.389056098930653E+000  7.481998983002083E+000  7.576110944636849E+000  7.671406689020434E+000 
 7.767901106306778E+000  7.865609273944895E+000  7.964546459034777E+000  8.064728120712875E+000 
 8.166169912567655E+000  8.268887685085474E+000  8.372897488127268E+000  8.478215573436378E+000 
 8.584858397177896E+000  8.692842622510009E+000  8.802185122187613E+000  8.912902981198741E+000 
 9.025013499434127E+000  9.138534194390328E+000  9.253482803906898E+000  9.369877288937936E+000 
 9.487735836358530E+000  9.607076861806508E+000  9.727919012559887E+000  9.850281170450589E+000 
 9.974182454814727E+000  1.009964222548006E+001  1.022668008579100E+001  1.035531588567170E+001 
 1.048556972472758E+001  1.061746195538601E+001  1.075101318607636E+001  1.088624428445014E+001 
 1.102317638064160E+001  1.116183087056937E+001  1.130222941927959E+001  1.144439396433113E+001 
 1.158834671922340E+001  1.173411017686721E+001  1.188170711309941E+001  1.203116059024154E+001 
 1.218249396070348E+001  1.233573087063226E+001  1.249089526360681E+001  1.264801138437923E+001 
 1.280710378266304E+001  1.296819731696914E+001  1.313131715849002E+001  1.329648879503279E+001 
 1.346373803500170E+001  1.363309101143076E+001  1.380457418606710E+001  1.397821435350564E+001 
 1.415403864537581E+001  1.433207453458094E+001  1.451234983959093E+001  1.469489272878895E+001 
 1.487973172487284E+001  1.506689570931179E+001  1.525641392685917E+001  1.544831599012203E+001 
 1.564263188418818E+001  1.583939197131143E+001  1.603862699565568E+001  1.624036808809884E+001 
 1.644464677109706E+001  1.665149496361015E+001  1.686094498608904E+001  1.707302956552586E+001 
 1.728778184056765E+001  1.750523536669429E+001  1.772542412146165E+001  1.794838250981065E+001 
 1.817414536944307E+001  1.840274797626505E+001  1.863422604989902E+001  1.886861575926489E+001 
 1.910595372823166E+001  1.934627704133982E+001  1.958962324959600E+001  1.983603037634033E+001 
 2.008553692318768E+001  2.033818187604362E+001  2.059400471119604E+001  2.085304540148342E+001 
 2.111534442254063E+001  2.138094275912335E+001  2.164988191151207E+001  2.192220390199647E+001 
 2.219795128144165E+001  2.247716713593663E+001  2.275989509352674E+001  2.304617933103059E+001 
 2.333606458094272E+001  2.362959613842323E+001  2.392681986837515E+001  2.422778221261099E+001 
 2.453253019710936E+001  2.484111143936285E+001  2.515357415581838E+001  2.546996716941110E+001 
 2.579033991719307E+001  2.611474245805798E+001  2.644322548056280E+001  2.677584031084814E+001 
 2.711263892065791E+001  2.745367393546011E+001  2.779899864266968E+001  2.814866699997465E+001 
 2.850273364376729E+001  2.886125389768103E+001  2.922428378123495E+001  2.959188001858697E+001 
 2.996410004739703E+001  3.034100202780193E+001  3.072264485150293E+001  3.110908815096768E+001 
 3.150039230874795E+001  3.189661846691451E+001  3.229782853661069E+001  3.270408520772617E+001 
 3.311545195869233E+001  3.353199306640095E+001  3.395377361624757E+001  3.438085951230120E+001 
 3.481331748760205E+001  3.525121511458856E+001  3.569462081565590E+001  3.614360387384695E+001 
 3.659823444367801E+001  3.705858356210059E+001  3.752472315960102E+001  3.799672607143978E+001 
 3.847466604903215E+001  3.895861777147199E+001  3.944865685720055E+001  3.994485987582195E+001 
 4.044730436006741E+001  4.095606881790982E+001  4.147123274483077E+001  4.199287663624201E+001 
 4.252108200006280E+001  4.305593136945594E+001  4.359750831572353E+001  4.414589746136525E+001 
 4.470118449330086E+001  4.526345617625879E+001  4.583280036633349E+001  4.640930602471300E+001 
 4.699306323157931E+001  4.758416320018370E+001  4.818269829109884E+001  4.878876202665044E+001 
 4.940244910553022E+001  5.002385541759277E+001  5.065307805883867E+001  5.129021534658573E+001 
 5.193536683483147E+001  5.258863332980847E+001  5.325011690573564E+001  5.391992092076757E+001 
 5.459815003314429E+001  5.528491021754444E+001  5.598030878164415E+001  5.668445438288382E+001 
 5.739745704544624E+001  5.811942817744804E+001  5.885048058834741E+001  5.959072850657099E+001 
 6.034028759736200E+001  6.109927498085337E+001  6.186780925036794E+001  6.264601049094886E+001 
 6.343400029812334E+001  6.423190179690189E+001  6.503983966101701E+001  6.585794013240375E+001 
 6.668633104092521E+001  6.752514182434615E+001  6.837450354855815E+001  6.923454892805864E+001 
 7.010541234668791E+001  7.098722987862693E+001  7.188013930965907E+001  7.278428015869967E+001 
 7.369979369959584E+001  7.462682298320098E+001  7.556551285972668E+001  7.651601000137589E+001 
 7.747846292526090E+001  7.845302201660915E+001  7.943983955226140E+001  8.043906972446531E+001 
 8.145086866496814E+001  8.247539446941303E+001  8.351280722204127E+001  8.456326902070607E+001 
 8.562694400220066E+001  8.670399836790490E+001  8.779460040975485E+001  8.889892053653833E+001 
 9.001713130052190E+001  9.114940742441244E+001  9.229592582865789E+001  9.345686565909166E+001 
 9.463240831492415E+001  9.582273747708696E+001  9.702803913693344E+001  9.824850162530007E+001 
 9.948431564193386E+001
    </PP_R>
    <PP_RAB type="real" size="929" columns="4">
 1.139852456943145E-005  1.154190035836278E-005  1.168707959270728E-005  1.183408495701567E-005 
 1.198293942117525E-005  1.213366624399886E-005  1.228628897685923E-005  1.244083146736889E-005 
 1.259731786310638E-005  1.275577261538943E-005  1.291622048309546E-005  1.307868653653023E-005 
 1.324319616134513E-005  1.340977506250371E-005  1.357844926829822E-005  1.374924513441648E-005 
 1.392218934806004E-005  1.409730893211415E-005  1.427463124937009E-005  1.445418400680072E-005 
 1.463599525988968E-005  1.482009341701516E-005  1.500650724388876E-005  1.519526586805018E-005 
 1.538639878341851E-005  1.557993585490062E-005  1.577590732305768E-005  1.597434380883031E-005 
 1.617527631832310E-005  1.637873624764950E-005  1.658475538783739E-005  1.679336592979659E-005 
 1.700460046934867E-005  1.721849201232022E-005  1.743507397969999E-005  1.765438021286102E-005 
 1.787644497884843E-005  1.810130297573370E-005  1.832898933803629E-005  1.855953964221359E-005 
 1.879298991221966E-005  1.902937662513415E-005  1.926873671686188E-005  1.951110758790416E-005 
 1.975652710920271E-005  2.000503362805705E-005  2.025666597411634E-005  2.051146346544658E-005 
 2.076946591467418E-005  2.103071363520677E-005  2.129524744753218E-005  2.156310868559678E-005 
 2.183433920326400E-005  2.210898138085401E-005  2.238707813176587E-005  2.266867290918269E-005 
 2.295380971286134E-005  2.324253309600752E-005  2.353488817223722E-005  2.383092062262596E-005 
 2.413067670284637E-005  2.443420325039584E-005  2.474154769191496E-005  2.505275805059799E-005 
 2.536788295369668E-005  2.568697164011824E-005  2.601007396811912E-005  2.633724042309543E-005 
 2.666852212547135E-005  2.700397083868693E-005  2.734363897728607E-005  2.768757961510646E-005 
 2.803584649357254E-005  2.838849403009259E-005  2.874557732656170E-005  2.910715217797142E-005 
 2.947327508112791E-005  2.984400324347967E-005  3.021939459205630E-005  3.059950778251979E-005 
 3.098440220832948E-005  3.137413801002249E-005  3.176877608461073E-005  3.216837809509625E-005 
 3.257300648010623E-005  3.298272446364902E-005  3.339759606499313E-005  3.381768610867034E-005 
 3.424306023460461E-005  3.467378490836861E-005  3.510992743156891E-005  3.555155595236209E-005 
 3.599873947610304E-005  3.645154787612710E-005  3.691005190466809E-005  3.737432320391326E-005 
 3.784443431719770E-005  3.832045870033929E-005  3.880247073311636E-005  3.929054573088976E-005 
 3.978475995637084E-005  4.028519063153783E-005  4.079191594970186E-005  4.130501508772478E-005 
 4.182456821839090E-005  4.235065652293390E-005  4.288336220372168E-005  4.342276849710067E-005 
 4.396895968640161E-005  4.452202111510912E-005  4.508203920019664E-005  4.564910144562930E-005 
 4.622329645603665E-005  4.680471395055726E-005  4.739344477685760E-005  4.798958092532705E-005 
 4.859321554345163E-005  4.920444295036854E-005  4.982335865160364E-005  5.045005935399448E-005 
 5.108464298080083E-005  5.172720868700546E-005  5.237785687480724E-005  5.303668920930926E-005 
 5.370380863440425E-005  5.437931938885961E-005  5.506332702260508E-005  5.575593841322503E-005 
 5.645726178265833E-005  5.716740671410841E-005  5.788648416916558E-005  5.861460650514514E-005 
 5.935188749264347E-005  6.009844233331488E-005  6.085438767787204E-005  6.161984164431316E-005 
 6.239492383637772E-005  6.317975536223518E-005  6.397445885340820E-005  6.477915848393406E-005 
 6.559397998976731E-005  6.641905068842595E-005  6.725449949888526E-005  6.810045696172162E-005 
 6.895705525950965E-005  6.982442823747624E-005  7.070271142441385E-005  7.159204205385732E-005 
 7.249255908552684E-005  7.340440322704066E-005  7.432771695590118E-005  7.526264454175699E-005 
 7.620933206894548E-005  7.716792745931885E-005  7.813858049535703E-005  7.912144284357185E-005 
 8.011666807820479E-005  8.112441170522359E-005  8.214483118662024E-005  8.317808596501467E-005 
 8.422433748856834E-005  8.528374923621035E-005  8.635648674318166E-005  8.744271762690021E-005 
 8.854261161315149E-005  8.965634056260874E-005  9.078407849768615E-005  9.192600162973046E-005 
 9.308228838655430E-005  9.425311944031587E-005  9.543867773574952E-005  9.663914851875088E-005 
 9.785471936532217E-005  9.908558021088130E-005  1.003319233799394E-004  1.015939436161526E-004 
 1.028718381127504E-004  1.041658065433476E-004  1.054760510931442E-004  1.068027764905168E-004 
 1.081461900390079E-004  1.095065016497179E-004  1.108839238741032E-004  1.122786719371891E-004 
 1.136909637711977E-004  1.151210200496018E-004  1.165690642216041E-004  1.180353225470527E-004 
 1.195200241317939E-004  1.210234009634711E-004  1.225456879477729E-004  1.240871229451377E-004 
 1.256479468079198E-004  1.272284034180235E-004  1.288287397250093E-004  1.304492057846813E-004 
 1.320900547981582E-004  1.337515431514366E-004  1.354339304554520E-004  1.371374795866435E-004 
 1.388624567280288E-004  1.406091314107958E-004  1.423777765564172E-004  1.441686685192954E-004 
 1.459820871299430E-004  1.478183157387077E-004  1.496776412600453E-004  1.515603542173512E-004 
 1.534667487883556E-004  1.553971228510885E-004  1.573517780304250E-004  1.593310197452134E-004 
 1.613351572559984E-004  1.633645037133436E-004  1.654193762067616E-004  1.675000958142604E-004 