<UPF version="2.0.1">
  <PP_INFO>
    Generated in analytical, separable form
    Author: Goedecker/Hartwigsen/Hutter/Teter
    Generation date: Phys.Rev.B58, 3641 (1998); B54, 1703 (1996)
    Pseudopotential type: NC
    Element:  O
    Functional: SLA-PW-PBX-PBC

    Suggested minimum cutoff for wavefunctions:   0. Ry
    Suggested minimum cutoff for charge density:   0. Ry
    The Pseudo was generated with a Scalar-Relativistic Calculation
    Local Potential: unknown format, L component and cutoff radius: -3   0.0000

    Valence configuration: 
    nl pn  l   occ       Rcut    Rcut US       E pseu

    Generation configuration: not available.
    Converted from CPMD format using cpmd2upf v.5.0.1 - PG 10Jul2012
    Contains atomic orbitals generated by ld1.x - use with care
  </PP_INFO>
  <!--                               -->
  <!-- END OF HUMAN READABLE SECTION -->
  <!--                               -->
  <PP_HEADER generated="Generated in analytical, separable form"
             author="Goedecker/Hartwigsen/Hutter/Teter"
             date="Phys.Rev.B58, 3641 (1998); B54, 1703 (1996)"
             comment="Contains atomic orbitals generated by ld1.x - use with care"
             element=" O"
             pseudo_type="NC"
             relativistic="scalar"
             is_ultrasoft="F"
             is_paw="F"
             is_coulomb="F"
             has_so="F"
             has_wfc="F"
             has_gipaw="F"
             paw_as_gipaw="F"
             core_correction="F"
             functional="SLA-PW-PBX-PBC"
             z_valence="6.000000000000000E+000"
             total_psenergy="0.000000000000000E+000"
             wfc_cutoff="0.000000000000000E+000"
             rho_cutoff="0.000000000000000E+000"
             l_max="1"
             l_max_rho="0"
             l_local="-3"
             mesh_size="1095"
             number_of_wfc=" 2"
             number_of_proj="1"/>
  <PP_MESH dx="1.250000000000000E-002" mesh="1095" xmin="-7.000000000000000E+000" rmax="9.904343173443276E+001"
zmesh="8.000000000000000E+000">
    <PP_R type="real" size="1095" columns="4">
 1.139852456943145E-004  1.154190035836278E-004  1.168707959270728E-004  1.183408495701567E-004 
 1.198293942117525E-004  1.213366624399886E-004  1.228628897685923E-004  1.244083146736889E-004 
 1.259731786310638E-004  1.275577261538943E-004  1.291622048309546E-004  1.307868653653023E-004 
 1.324319616134513E-004  1.340977506250371E-004  1.357844926829822E-004  1.374924513441648E-004 
 1.392218934806004E-004  1.409730893211415E-004  1.427463124937009E-004  1.445418400680072E-004 
 1.463599525988968E-004  1.482009341701516E-004  1.500650724388876E-004  1.519526586805018E-004 
 1.538639878341851E-004  1.557993585490062E-004  1.577590732305768E-004  1.597434380883031E-004 
 1.617527631832310E-004  1.637873624764950E-004  1.658475538783739E-004  1.679336592979659E-004 
 1.700460046934867E-004  1.721849201232021E-004  1.743507397969998E-004  1.765438021286102E-004 
 1.787644497884843E-004  1.810130297573369E-004  1.832898933803629E-004  1.855953964221359E-004 
 1.879298991221965E-004  1.902937662513414E-004  1.926873671686188E-004  1.951110758790415E-004 
 1.975652710920271E-004  2.000503362805705E-004  2.025666597411633E-004  2.051146346544658E-004 
 2.076946591467417E-004  2.103071363520676E-004  2.129524744753217E-004  2.156310868559678E-004 
 2.183433920326400E-004  2.210898138085401E-004  2.238707813176587E-004  2.266867290918269E-004 
 2.295380971286134E-004  2.324253309600751E-004  2.353488817223722E-004  2.383092062262596E-004 
 2.413067670284637E-004  2.443420325039584E-004  2.474154769191496E-004  2.505275805059799E-004 
 2.536788295369668E-004  2.568697164011824E-004  2.601007396811912E-004  2.633724042309543E-004 
 2.666852212547135E-004  2.700397083868693E-004  2.734363897728606E-004  2.768757961510646E-004 
 2.803584649357254E-004  2.838849403009259E-004  2.874557732656170E-004  2.910715217797142E-004 
 2.947327508112791E-004  2.984400324347967E-004  3.021939459205629E-004  3.059950778251979E-004 
 3.098440220832948E-004  3.137413801002248E-004  3.176877608461073E-004  3.216837809509625E-004 
 3.257300648010623E-004  3.298272446364902E-004  3.339759606499313E-004  3.381768610867033E-004 
 3.424306023460460E-004  3.467378490836861E-004  3.510992743156891E-004  3.555155595236209E-004 
 3.599873947610304E-004  3.645154787612710E-004  3.691005190466808E-004  3.737432320391325E-004 
 3.784443431719769E-004  3.832045870033929E-004  3.880247073311636E-004  3.929054573088975E-004 
 3.978475995637084E-004  4.028519063153783E-004  4.079191594970185E-004  4.130501508772477E-004 
 4.182456821839090E-004  4.235065652293390E-004  4.288336220372168E-004  4.342276849710067E-004 
 4.396895968640161E-004  4.452202111510912E-004  4.508203920019663E-004  4.564910144562929E-004 
 4.622329645603665E-004  4.680471395055725E-004  4.739344477685760E-004  4.798958092532704E-004 
 4.859321554345163E-004  4.920444295036854E-004  4.982335865160363E-004  5.045005935399448E-004 
 5.108464298080083E-004  5.172720868700546E-004  5.237785687480724E-004  5.303668920930925E-004 
 5.370380863440425E-004  5.437931938885961E-004  5.506332702260508E-004  5.575593841322502E-004 
 5.645726178265832E-004  5.716740671410841E-004  5.788648416916557E-004  5.861460650514514E-004 
 5.935188749264347E-004  6.009844233331487E-004  6.085438767787204E-004  6.161984164431315E-004 
 6.239492383637771E-004  6.317975536223518E-004  6.397445885340820E-004  6.477915848393406E-004 
 6.559397998976731E-004  6.641905068842594E-004  6.725449949888526E-004  6.810045696172162E-004 
 6.895705525950964E-004  6.982442823747625E-004  7.070271142441385E-004  7.159204205385731E-004 
 7.249255908552683E-004  7.340440322704065E-004  7.432771695590118E-004  7.526264454175699E-004 
 7.620933206894547E-004  7.716792745931884E-004  7.813858049535702E-004  7.912144284357184E-004 
 8.011666807820479E-004  8.112441170522359E-004  8.214483118662024E-004  8.317808596501467E-004 
 8.422433748856834E-004  8.528374923621034E-004  8.635648674318165E-004  8.744271762690021E-004 
 8.854261161315148E-004  8.965634056260874E-004  9.078407849768614E-004  9.192600162973045E-004 
 9.308228838655430E-004  9.425311944031586E-004  9.543867773574952E-004  9.663914851875088E-004 
 9.785471936532217E-004  9.908558021088129E-004  1.003319233799394E-003  1.015939436161526E-003 
 1.028718381127504E-003  1.041658065433476E-003  1.054760510931442E-003  1.068027764905167E-003 
 1.081461900390079E-003  1.095065016497179E-003  1.108839238741032E-003  1.122786719371891E-003 
 1.136909637711977E-003  1.151210200496018E-003  1.165690642216041E-003  1.180353225470526E-003 
 1.195200241317939E-003  1.210234009634710E-003  1.225456879477728E-003  1.240871229451376E-003 
 1.256479468079198E-003  1.272284034180235E-003  1.288287397250093E-003  1.304492057846813E-003 
 1.320900547981582E-003  1.337515431514366E-003  1.354339304554520E-003  1.371374795866435E-003 
 1.388624567280288E-003  1.406091314107958E-003  1.423777765564172E-003  1.441686685192954E-003 
 1.459820871299430E-003  1.478183157387077E-003  1.496776412600453E-003  1.515603542173512E-003 
 1.534667487883556E-003  1.553971228510885E-003  1.573517780304250E-003  1.593310197452134E-003 
 1.613351572559984E-003  1.633645037133436E-003  1.654193762067616E-003  1.675000958142604E-003 
 1.696069876525117E-003  1.717403809276518E-003  1.739006089867204E-003  1.760880093697465E-003 
 1.783029238624907E-003  1.805456985498485E-003  1.828166838699278E-003  1.851162346688052E-003 
 1.874447102559713E-003  1.898024744604743E-003  1.921898956877679E-003  1.946073469772761E-003 
 1.970552060606813E-003  1.995338554209451E-003  2.020436823520734E-003  2.045850790196303E-003 
 2.071584425220157E-003  2.097641749525122E-003  2.124026834621133E-003  2.150743803231423E-003 
 2.177796829936689E-003  2.205190141827395E-003  2.232928019164256E-003  2.261014796047037E-003 
 2.289454861091772E-003  2.318252658116486E-003  2.347412686835551E-003  2.376939503562782E-003 
 2.406837721923366E-003  2.437112013574749E-003  2.467767108936598E-003  2.498807797929929E-003 
 2.530238930725549E-003  2.562065418501907E-003  2.594292234212468E-003  2.626924413362754E-003 
 2.659967054797147E-003  2.693425321495596E-003  2.727304441380347E-003  2.761609708132805E-003 
 2.796346482020700E-003  2.831520190735621E-003  2.867136330241116E-003  2.903200465631447E-003 
 2.939718232001138E-003  2.976695335325485E-003  3.014137553352109E-003  3.052050736503754E-003 
 3.090440808792425E-003  3.129313768745018E-003  3.168675690340618E-003  3.208532723959554E-003 
 3.248891097344418E-003  3.289757116573164E-003  3.331137167044436E-003  3.373037714475311E-003 
 3.415465305911571E-003  3.458426570750697E-003  3.501928221777728E-003  3.545977056214138E-003 
 3.590579956779929E-003  3.635743892769060E-003  3.681475921138411E-003  3.727783187610464E-003 
 3.774672927789813E-003  3.822152468293762E-003  3.870229227897112E-003  3.918910718691361E-003 
 3.968204547258494E-003  4.018118415859508E-003  4.068660123637929E-003  4.119837567838421E-003 
 4.171658745040760E-003  4.224131752409320E-003  4.277264788958254E-003  4.331066156832628E-003 
 4.385544262605630E-003  4.440707618592121E-003  4.496564844178708E-003  4.553124667170529E-003 
 4.610395925155002E-003  4.668387566882703E-003  4.727108653665635E-003  4.786568360793083E-003 
 4.846775978965251E-003  4.907740915744977E-003  4.969472697027665E-003  5.031980968529731E-003 
 5.095275497295778E-003  5.159366173224694E-003  5.224263010614990E-003  5.289976149729540E-003 
 5.356515858380023E-003  5.423892533531297E-003  5.492116702925928E-003  5.561199026729190E-003 
 5.631150299194728E-003  5.701981450351176E-003  5.773703547710015E-003  5.846327797994873E-003 
 5.919865548892616E-003  5.994328290826434E-003  6.069727658751247E-003  6.146075433971698E-003 
 6.223383545982993E-003  6.301664074334922E-003  6.380929250519302E-003  6.461191459881174E-003 
 6.542463243554051E-003  6.624757300419479E-003  6.708086489091267E-003  6.792463829924687E-003 
 6.877902507050904E-003  6.964415870437053E-003  7.052017437972171E-003  7.140720897579412E-003 
 7.230540109354811E-003  7.321489107732941E-003  7.413582103679844E-003  7.506833486913497E-003 
 7.601257828152247E-003  7.696869881391529E-003  7.793684586209179E-003  7.891717070099800E-003 
 7.990982650838450E-003  8.091496838874069E-003  8.193275339753045E-003  8.296334056573200E-003 
 8.400689092468723E-003  8.506356753126278E-003  8.613353549332823E-003  8.721696199555458E-003 
 8.831401632553700E-003  8.942486990024657E-003  9.054969629281437E-003  9.168867125965267E-003 
 9.284197276791738E-003  9.400978102331550E-003  9.519227849826294E-003  9.638964996039593E-003 
 9.760208250144146E-003  9.882976556645086E-003  1.000728909834007E-002  1.013316529931666E-002 
 1.026062482798735E-002  1.038968760016282E-002  1.052037378216380E-002  1.065270379397210E-002 
 1.078669831242132E-002  1.092237827442755E-002  1.105976488026091E-002  1.119887959685809E-002 
 1.133974416117656E-002  1.148238058359112E-002  1.162681115133294E-002  1.177305843197209E-002 
 1.192114527694371E-002  1.207109482511860E-002  1.222293050641876E-002  1.237667604547829E-002 
 1.253235546535047E-002  1.268999309126139E-002  1.284961355441080E-002  1.301124179582084E-002 
 1.317490307023305E-002  1.334062295005453E-002  1.350842732935366E-002  1.367834242790612E-002 
 1.385039479529174E-002  1.402461131504297E-002  1.420101920884547E-002  1.437964604079155E-002 
 1.456051972168712E-002  1.474366851341282E-002  1.492912103333996E-002  1.511690625880209E-002 
 1.530705353162274E-002  1.549959256270015E-002  1.569455343664966E-002  1.589196661650446E-002 
 1.609186294847553E-002  1.629427366677146E-002  1.649923039847878E-002  1.670676516850381E-002 
 1.691691040457659E-002  1.712969894231781E-002  1.734516403036941E-002  1.756333933558977E-002 
 1.778425894831420E-002  1.800795738768166E-002  1.823446960702843E-002  1.846383099934961E-002 
 1.869607740282939E-002  1.893124510644082E-002  1.916937085561606E-002  1.941049185798788E-002 
 1.965464578920346E-002  1.990187079881129E-002  2.015220551622210E-002  2.040568905674480E-002 
 2.066236102769832E-002  2.092226153460032E-002  2.118543118743377E-002  2.145191110699235E-002 
 2.172174293130565E-002  2.199496882214520E-002  2.227163147161231E-002  2.255177410880885E-002 
 2.283544050659184E-002  2.312267498841304E-002  2.341352243524464E-002  2.370802829259192E-002 
 2.400623857759427E-002  2.430819988621545E-002  2.461395940052426E-002  2.492356489606690E-002 
 2.523706474933193E-002  2.555450794530926E-002  2.587594408514408E-002  2.620142339388723E-002 
 2.653099672834289E-002  2.686471558501508E-002  2.720263210815412E-002  2.754479909790424E-002 
 2.789127001855373E-002  2.824209900688887E-002  2.859734088065281E-002  2.895705114711111E-002 
 2.932128601172471E-002  2.969010238693227E-002  3.006355790104278E-002  3.044171090724010E-002 
 3.082462049270082E-002  3.121234648782670E-002  3.160494947559331E-002  3.200249080101627E-002 
 3.240503258073645E-002  3.281263771272592E-002  3.322536988611583E-002  3.364329359114799E-002 
 3.406647412925159E-002  3.449497762324665E-002  3.492887102767592E-002  3.536822213926662E-002 
 3.581309960752377E-002  3.626357294545693E-002  3.671971254044162E-002  3.718158966521758E-002 
 3.764927648902527E-002  3.812284608888242E-002  3.860237246100250E-002  3.908793053235673E-002 
 3.957959617238167E-002  4.007744620483384E-002  4.058155841979372E-002  4.109201158582053E-002 
 4.160888546225996E-002  4.213226081170680E-002  4.266221941262422E-002  4.319884407212182E-002 
 4.374221863889444E-002  4.429242801632360E-002  4.484955817574397E-002  4.541369616987642E-002 
 4.598493014643031E-002  4.656334936187664E-002  4.714904419539463E-002  4.774210616299363E-002 
 4.834262793181267E-002  4.895070333459989E-002  4.956642738437413E-002  5.018989628927085E-002 
 5.082120746757490E-002  5.146045956294232E-002  5.210775245981357E-002  5.276318729902070E-002 
 5.342686649359085E-002  5.409889374474842E-002  5.477937405811868E-002  5.546841376013500E-002 
 5.616612051465272E-002  5.687260333977171E-002  5.758797262487075E-002  5.831234014785606E-002 
 5.904581909262686E-002  5.978852406676053E-002  6.054057111942033E-002  6.130207775948829E-002 
 6.207316297392621E-002  6.285394724636764E-002  6.364455257594367E-002  6.444510249634554E-002 
 6.525572209512702E-002  6.607653803324968E-002  6.690767856487380E-002  6.774927355739842E-002 
 6.860145451175333E-002  6.946435458294645E-002  7.033810860086949E-002  7.122285309136540E-002 
 7.211872629756086E-002  7.302586820146700E-002  7.394442054585190E-002  7.487452685638821E-002 
 7.581633246407921E-002  7.676998452796725E-002  7.773563205812754E-002  7.871342593895128E-002 
 7.970351895272169E-002  8.070606580348653E-002  8.172122314123094E-002  8.274914958635428E-002 
 8.379000575445494E-002  8.484395428142683E-002  8.591115984887156E-002  8.699178920983028E-002 
 8.808601121483921E-002  8.919399683831285E-002  9.031591920525905E-002  9.145195361833026E-002 
 9.260227758521478E-002  9.376707084637276E-002  9.494651540312110E-002  9.614079554607136E-002 
 9.735009788392565E-002  9.857461137263461E-002  9.981452734492217E-002  1.010700395401816E-001 
 1.023413441347478E-001  1.036286397725501E-001  1.049321275961510E-001  1.062520112781748E-001 
 1.075884970531323E-001  1.089417937496448E-001  1.103121128230745E-001  1.116996683885645E-001 
 1.131046772544950E-001  1.145273589563598E-001  1.159679357910691E-001  1.174266328516845E-001 
 1.189036780625893E-001  1.203993022151028E-001  1.219137390035416E-001  1.234472250617352E-001 
 1.250000000000001E-001  1.265723064425794E-001  1.281643900655537E-001  1.297764996352282E-001 
 1.314088870470031E-001  1.330618073647325E-001  1.347355188605790E-001  1.364302830553690E-001 
 1.381463647594560E-001  1.398840321140976E-001  1.416435566333533E-001  1.434252132465091E-001 
 1.452292803410354E-001  1.470560398060864E-001  1.489057770765448E-001  1.507787811776226E-001 
 1.526753447700213E-001  1.545957641956607E-001  1.565403395239831E-001  1.585093745988400E-001 
 1.605031770859678E-001  1.625220585210614E-001  1.645663343584528E-001  1.666363240204004E-001 
 1.687323509470005E-001  1.708547426467246E-001  1.730038307475940E-001  1.751799510489967E-001 
 1.773834435741572E-001  1.796146526232656E-001  1.818739268272752E-001  1.841616192023770E-001 
 1.864780872051589E-001  1.888236927884591E-001  1.911988024579224E-001  1.936037873292667E-001 
 1.960390231862712E-001  1.985048905394930E-001  2.010017746857229E-001  2.035300657681888E-001 
 2.060901588375161E-001  2.086824539134554E-001  2.113073560473865E-001  2.139652753856081E-001 
 2.166566272334245E-001  2.193818321200374E-001  2.221413158642549E-001  2.249355096410262E-001 
 2.277648500488137E-001  2.306297791778126E-001  2.335307446790279E-001  2.364681998342213E-001 
 2.394426036267371E-001  2.424544208132194E-001  2.455041219962310E-001  2.485921836977866E-001 
 2.517190884338097E-001  2.548853247895270E-001  2.580913874958109E-001  2.613377775064821E-001 
 2.646250020765845E-001  2.679535748416450E-001  2.713240158979304E-001  2.747368518837128E-001 
 2.781926160615586E-001  2.816918484016512E-001  2.852350956661631E-001  2.888229114946881E-001 
 2.924558564907490E-001  2.961344983093926E-001  2.998594117458874E-001  3.036311788255361E-001 
 3.074503888946188E-001  3.113176387124790E-001  3.152335325447687E-001  3.191986822578660E-001 
 3.232137074144809E-001  3.272792353704628E-001  3.313959013728260E-001  3.355643486590089E-001 
 3.397852285573808E-001  3.440592005890132E-001  3.483869325707314E-001  3.527691007194627E-001 
 3.572063897578956E-001  3.616994930214703E-001  3.662491125667128E-001  3.708559592809336E-001 
 3.755207529933043E-001  3.802442225873331E-001  3.850271061147541E-001  3.898701509108492E-001 
 3.947741137112211E-001  3.997397607700346E-001  4.047678679797453E-001  4.098592209923344E-001 
 4.150146153420686E-001  4.202348565698038E-001  4.255207603488526E-001  4.308731526124345E-001 
 4.362928696827303E-001  4.417807584015589E-001  4.473376762626975E-001  4.529644915458680E-001 
 4.586620834524058E-001  4.644313422426382E-001  4.702731693749890E-001  4.761884776468328E-001 
 4.821781913371220E-001  4.882432463508067E-001  4.943845903650724E-001  5.006031829774158E-001 
 5.068999958555845E-001  5.132760128894018E-001  5.197322303445012E-001  5.262696570179953E-001 
 5.328893143961024E-001  5.395922368137558E-001  5.463794716162200E-001  5.532520793227420E-001 
 5.602111337922584E-001  5.672577223911881E-001  5.743929461633364E-001  5.816179200019341E-001 
 5.889337728238430E-001  5.963416477459507E-001  6.038427022637851E-001  6.114381084323759E-001 
 6.191290530493897E-001  6.269167378405702E-001  6.348023796475104E-001  6.427872106177860E-001 
 6.508724783974814E-001  6.590594463261368E-001  6.673493936341474E-001  6.757436156426462E-001 
 6.842434239659002E-001  6.928501467162532E-001  7.015651287116450E-001  7.103897316857433E-001 
 7.193253345007167E-001  7.283733333626845E-001  7.375351420398775E-001  7.468121920835409E-001 
 7.562059330516187E-001  7.657178327352486E-001  7.753493773881085E-001  7.851020719586459E-001 
 7.949774403252294E-001  8.049770255342578E-001  8.151023900412644E-001  8.253551159550537E-001 
 8.357368052849091E-001  8.462490801909099E-001  8.568935832373977E-001  8.676719776496298E-001 
 8.785859475736620E-001  8.896371983394998E-001  9.008274567275589E-001  9.121584712384794E-001 
 9.236320123663316E-001  9.352498728752604E-001  9.470138680796061E-001  9.589258361275542E-001 
 9.709876382883472E-001  9.832011592431119E-001  9.955683073793471E-001  1.008091015089109E+000 
 1.020771239070957E+000  1.033610960635684E+000  1.046612186015909E+000  1.059776946679547E+000 
 1.073107299647237E+000  1.086605327813751E+000  1.100273140273452E+000  1.114112872649843E+000 
 1.128126687429266E+000  1.142316774298791E+000  1.156685350488362E+000  1.171234661117242E+000 
 1.185966979544816E+000  1.200884607725814E+000  1.215989876569986E+000  1.231285146306324E+000 
 1.246772806851841E+000  1.262455278185007E+000  1.278335010723876E+000  1.294414485708962E+000 
 1.310696215590947E+000  1.327182744423251E+000  1.343876648259545E+000  1.360780535556268E+000 
 1.377897047580201E+000  1.395228858821172E+000  1.412778677409949E+000  1.430549245541391E+000 
 1.448543339902925E+000  1.466763772108402E+000  1.485213389137426E+000  1.503895073780192E+000 
 1.522811745087935E+000  1.541966358829033E+000  1.561361907950852E+000  1.581001423047404E+000 
 1.600887972832880E+000  1.621024664621143E+000  1.641414644811253E+000  1.662061099379099E+000 
 1.682967254375212E+000  1.704136376428846E+000  1.725571773258388E+000  1.747276794188205E+000 
 1.769254830671976E+000  1.791509316822617E+000  1.814043729948866E+000  1.836861591098619E+000 
 1.859966465609106E+000  1.883361963663974E+000  1.907051740857396E+000  1.931039498765253E+000 
 1.955328985523522E+000  1.979923996413928E+000  2.004828374456959E+000  2.030046011012355E+000 
 2.055580846387133E+000  2.081436870451269E+000  2.107618123261130E+000  2.134128695690733E+000 
 2.160972730070956E+000  2.188154420836786E+000  2.215678015182706E+000  2.243547813726331E+000 
 2.271768171180383E+000  2.300343497033132E+000  2.329278256237377E+000  2.358576969908111E+000 
 2.388244216028957E+000  2.418284630167477E+000  2.448702906199500E+000  2.479503797042542E+000 
 2.510692115398459E+000  2.542272734505453E+000  2.574250588899504E+000  2.606630675185427E+000 
 2.639418052817578E+000  2.672617844890419E+000  2.706235238939009E+000  2.740275487749559E+000 
 2.774743910180206E+000  2.809645891992078E+000  2.844986886690842E+000  2.880772416378824E+000 
 2.917008072617840E+000  2.953699517302903E+000  2.990852483546894E+000  3.028472776576374E+000 
 3.066566274638670E+000  3.105138929920356E+000  3.144196769477297E+000  3.183745896176387E+000 
 3.223792489649134E+000  3.264342807257247E+000  3.305403185070350E+000  3.346980038856017E+000 
 3.389079865082238E+000  3.431709241932514E+000  3.474874830333710E+000  3.518583374996832E+000 
 3.562841705470912E+000  3.607656737210129E+000  3.653035472654369E+000  3.698985002323371E+000 
 3.745512505924628E+000  3.792625253475242E+000  3.840330606437867E+000  3.888636018870959E+000 
 3.937549038593494E+000  3.987077308364314E+000  4.037228567076337E+000  4.088010650965772E+000 
 4.139431494836541E+000  4.191499133300119E+000  4.244221702030946E+000  4.297607439037650E+000 
 4.351664685950256E+000  4.406401889323570E+000  4.461827601956987E+000  4.517950484230869E+000 
 4.574779305459751E+000  4.632322945262574E+000  4.690590394950127E+000  4.749590758929973E+000 
 4.809333256129019E+000  4.869827221433998E+000  4.931082107150069E+000  4.993107484477744E+000 
 5.055913045008427E+000  5.119508602238728E+000  5.183904093103846E+000  5.249109579530251E+000 
 5.315135250007851E+000  5.381991421181993E+000  5.449688539465441E+000  5.518237182670656E+000 
 5.587648061662607E+000  5.657932022032348E+000  5.729100045791687E+000  5.801163253089125E+000 
 5.874132903947413E+000  5.948020400022963E+000  6.022837286387355E+000  6.098595253331305E+000 
 6.175306138191277E+000  6.252981927199096E+000  6.331634757354833E+000  6.411276918323216E+000 
 6.491920854353934E+000  6.573579166226059E+000  6.656264613216956E+000  6.739990115095946E+000 
 6.824768754143036E+000  6.910613777193054E+000  6.997538597705519E+000  7.085556797860478E+000 
 7.174682130680780E+000  7.264928522181004E+000  7.356310073543426E+000  7.448841063321374E+000 
 7.542535949670250E+000  7.637409372606672E+000  7.733476156295993E+000  7.830751311368608E+000 
 7.929250037265418E+000  8.028987724612737E+000  8.129979957627127E+000  8.232242516550469E+000 
 8.335791380115651E+000  8.440642728043269E+000  8.546812943569769E+000  8.654318616007330E+000 
 8.763176543335989E+000  8.873403734828367E+000  8.985017413707384E+000  9.098035019837459E+000 
 9.212474212449481E+000  9.328352872900123E+000  9.445689107465835E+000  9.564501250171986E+000 
 9.684807865657612E+000  9.806627752076144E+000  9.929979944032675E+000  1.005488371555816E+001 
 1.018135858312102E+001  1.030942430867663E+001  1.043910090275516E+001  1.057040862758826E+001 
 1.070336800027508E+001  1.083799979598811E+001  1.097432505121936E+001  1.111236506706729E+001 
 1.125214141256524E+001  1.139367592805156E+001  1.153699072858224E+001  1.168210820738646E+001 
 1.182905103936552E+001  1.197784218463587E+001  1.212850489211668E+001  1.228106270316251E+001 
 1.243553945524173E+001  1.259195928566114E+001  1.275034663533747E+001  1.291072625261636E+001 
 1.307312319713928E+001  1.323756284375924E+001  1.340407088650557E+001  1.357267334259871E+001 
 1.374339655651545E+001  1.391626720410529E+001  1.409131229675865E+001  1.426855918562738E+001 
 1.444803556589847E+001  1.462976948112149E+001  1.481378932759042E+001  1.500012385878068E+001 
 1.518880218984187E+001  1.537985380214708E+001  1.557330854789943E+001  1.576919665479652E+001 
 1.596754873075361E+001  1.616839576868612E+001  1.637176915135234E+001  1.657770065625708E+001 
 1.678622246061694E+001  1.699736714638812E+001  1.721116770535734E+001  1.742765754429691E+001 
 1.764687049018463E+001  1.786884079548925E+001  1.809360314352262E+001  1.832119265385890E+001 
 1.855164488782209E+001  1.878499585404262E+001  1.902128201408370E+001  1.926054028813860E+001 
 1.950280806079939E+001  1.974812318689845E+001  1.999652399742333E+001  2.024804930550604E+001 
 2.050273841248773E+001  2.076063111405951E+001  2.102176770648070E+001  2.128618899287514E+001 
 2.155393628960679E+001  2.182505143273554E+001  2.209957678455406E+001  2.237755524020710E+001 
 2.265903023439392E+001  2.294404574815500E+001  2.323264631574427E+001  2.352487703158756E+001 
 2.382078355732877E+001  2.412041212896457E+001  2.442380956406887E+001  2.473102326910820E+001 
 2.504210124684898E+001  2.535709210385813E+001  2.567604505809792E+001  2.599900994661633E+001 
 2.632603723333432E+001  2.665717801693076E+001  2.699248403882679E+001  2.733200769127052E+001 
 2.767580202552340E+001  2.802392076014964E+001  2.837641828940976E+001  2.873334969175988E+001 
 2.909477073845779E+001  2.946073790227733E+001  2.983130836633246E+001  3.020654003301210E+001 
 3.058649153302758E+001  3.097122223457379E+001  3.136079225260557E+001  3.175526245823088E+001 
 3.215469448822187E+001  3.255915075464588E+001  3.296869445461741E+001  3.338338958017277E+001 
 3.380330092826910E+001  3.422849411090882E+001  3.465903556539178E+001  3.509499256469619E+001 
 3.553643322799012E+001  3.598342653127538E+001  3.643604231816502E+001  3.689435131079657E+001 
 3.735842512088257E+001  3.782833626089998E+001  3.830415815542054E+001  3.878596515258330E+001 
 3.927383253571181E+001  3.976783653507726E+001  4.026805433980957E+001  4.077456410995850E+001 
 4.128744498870611E+001  4.180677711473317E+001  4.233264163474094E+001  4.286512071613055E+001 
 4.340429755984184E+001  4.395025641335360E+001  4.450308258384743E+001  4.506286245153721E+001 
 4.562968348316611E+001  4.620363424567361E+001  4.678480442003402E+001  4.737328481526949E+001 
 4.796916738263903E+001  4.857254523000610E+001  4.918351263638701E+001  4.980216506668199E+001 
 5.042859918659194E+001  5.106291287772257E+001  5.170520525287860E+001  5.235557667155049E+001 
 5.301412875559557E+001  5.368096440511679E+001  5.435618781454108E+001  5.503990448889986E+001 
 5.573222126031465E+001  5.643324630468944E+001  5.714308915861367E+001  5.786186073647745E+001 
 5.858967334780213E+001  5.932664071478906E+001  6.007287799008867E+001  6.082850177479345E+001 
 6.159363013665710E+001  6.236838262854275E+001  6.315288030710363E+001  6.394724575169803E+001 
 6.475160308354280E+001  6.556607798510755E+001  6.639079771975264E+001  6.722589115161462E+001 
 6.807148876574118E+001  6.892772268847990E+001  6.979472670812325E+001  7.067263629581315E+001 
 7.156158862670893E+001  7.246172260142080E+001  7.337317886771368E+001  7.429609984248353E+001 
 7.523062973401028E+001  7.617691456449096E+001  7.713510219285546E+001  7.810534233787018E+001 
 7.908778660153176E+001  8.008258849275511E+001  8.108990345135980E+001  8.210988887235747E+001 
 8.314270413054530E+001  8.418851060540868E+001  8.524747170633694E+001  8.631975289815672E+001 
 8.740552172698573E+001  8.850494784641251E+001  8.961820304400499E+001  9.074546126815267E+001 
 9.188689865524665E+001  9.304269355720088E+001  9.421302656932025E+001  9.539808055851896E+001 
 9.659804069189374E+001  9.781309446565697E+001  9.904343173443276E+001
    </PP_R>
    <PP_RAB type="real" size="1095" columns="4">
 1.424815571178932E-006  1.442737544795347E-006  1.460884949088410E-006  1.479260619626959E-006 
 1.497867427646906E-006  1.516708280499858E-006  1.535786122107404E-006  1.555103933421111E-006 
 1.574664732888298E-006  1.594471576923679E-006  1.614527560386933E-006  1.634835817066279E-006 
 1.655399520168141E-006  1.676221882812964E-006  1.697306158537278E-006  1.718655641802060E-006 
 1.740273668507505E-006  1.762163616514269E-006  1.784328906171262E-006  1.806773000850090E-006 
 1.829499407486210E-006  1.852511677126895E-006  1.875813405486095E-006  1.899408233506273E-006 
 1.923299847927314E-006  1.947491981862577E-006  1.971988415382210E-006  1.996792976103788E-006 
 2.021909539790388E-006  2.047342030956188E-006  2.073094423479674E-006  2.099170741224573E-006 
 2.125575058668584E-006  2.152311501540027E-006  2.179384247462498E-006  2.206797526607627E-006 
 2.234555622356054E-006  2.262662871966712E-006  2.291123667254536E-006  2.319942455276699E-006 
 2.349123739027457E-006  2.378672078141768E-006  2.408592089607735E-006  2.438888448488019E-006 
 2.469565888650339E-006  2.500629203507132E-006  2.532083246764542E-006  2.563932933180822E-006 
 2.596183239334272E-006  2.628839204400846E-006  2.661905930941522E-006  2.695388585699598E-006 