       3
 i =       41, E =       -42.1908792604
  S         4.9999986448        4.9666767697        5.2571227806
  O         4.9999999980        6.2087412933        4.5332461336
  O         4.9999999958        3.7245960698        4.5332576512
