#     Step Nr.          Time[fs]        Kin.[a.u.]          Temp[K]            Pot.[a.u.]        Cons Qty[a.u.]        UsedTime[s]
         0            0.000000         0.511599019       300.000000000       -97.195577990       -96.683978972         0.000000000
         1            0.100000         0.511253657       299.797480984       -97.195232499       -96.683978833         0.019871993
         2            0.200000         0.510026136       299.077666584       -97.194004497       -96.683978326         0.008741576
         3            0.300000         0.507924535       297.845294448       -97.191902067       -96.683977454         0.008760117
         4            0.400000         0.504962731       296.108502749       -97.188939095       -96.683976225         0.008745138
         5            0.500000         0.501160294       293.878765611       -97.185135158       -96.683974648         0.008683326
         6            0.600000         0.496542321       291.170801276       -97.180515368       -96.683972736         0.008692704
         7            0.700000         0.491139243       288.002453927       -97.175110170       -96.683970504         0.008692406
         8            0.800000         0.484986576       284.394550316       -97.168955098       -96.683967971         0.008693844
         9            0.900000         0.478124639       280.370732631       -97.162090492       -96.683965156         0.008754276
        10            1.000000         0.470598227       275.957269240       -97.154561168       -96.683962083         0.008726727
