     360
 i =        0, time =        0.000, E =       -97.1955779903
  C         5.0220000000       -0.7090000000       -3.6840000000
  C         1.6740000000       -3.5450000000       -3.6840000000
  C         1.6740000000       -2.1270000000       -3.6840000000
  C         5.0220000000       -2.1270000000       -3.6840000000
  C         1.6740000000       -1.4180000000       -2.4560000000
  C         5.0220000000       -2.8360000000       -2.4560000000
  C         1.6740000000        0.0000000000       -2.4560000000
  C         5.0220000000        0.0000000000       -2.4560000000
  C        11.7220000000       -0.7090000000       -3.6840000000
  C         8.3740000000       -3.5450000000       -3.6840000000
  C         8.3740000000       -2.1270000000       -3.6840000000
  C        11.7220000000       -2.1270000000       -3.6840000000
  C         8.3740000000       -1.4180000000       -2.4560000000
  C        11.7220000000       -2.8360000000       -2.4560000000
  C         8.3740000000        0.0000000000       -2.4560000000
  C        11.7220000000        0.0000000000       -2.4560000000
  C        18.4220000000       -0.7090000000       -3.6840000000
  C        15.0740000000       -3.5450000000       -3.6840000000
  C        15.0740000000       -2.1270000000       -3.6840000000
  C        18.4220000000       -2.1270000000       -3.6840000000
  C        15.0740000000       -1.4180000000       -2.4560000000
  C        18.4220000000       -2.8360000000       -2.4560000000
  C        15.0740000000        0.0000000000       -2.4560000000
  C        18.4220000000        0.0000000000       -2.4560000000
  C         5.0220000000        3.5410000000       -3.6840000000
  C         1.6740000000        0.7050000000       -3.6840000000
  C         1.6740000000        2.1230000000       -3.6840000000
  C         5.0220000000        2.1230000000       -3.6840000000
  C         1.6740000000        2.8320000000       -2.4560000000
  C         5.0220000000        1.4140000000       -2.4560000000
  C         1.6740000000        4.2500000000       -2.4560000000
  C         5.0220000000        4.2500000000       -2.4560000000
  C        11.7220000000        3.5410000000       -3.6840000000
  C         8.3740000000        0.7050000000       -3.6840000000
  C         8.3740000000        2.1230000000       -3.6840000000
  C        11.7220000000        2.1230000000       -3.6840000000
  C         8.3740000000        2.8320000000       -2.4560000000
  C        11.7220000000        1.4140000000       -2.4560000000
  C         8.3740000000        4.2500000000       -2.4560000000
  C        11.7220000000        4.2500000000       -2.4560000000
  C        18.4220000000        3.5410000000       -3.6840000000
  C        15.0740000000        0.7050000000       -3.6840000000
  C        15.0740000000        2.1230000000       -3.6840000000
  C        18.4220000000        2.1230000000       -3.6840000000
  C        15.0740000000        2.8320000000       -2.4560000000
  C        18.4220000000        1.4140000000       -2.4560000000
  C        15.0740000000        4.2500000000       -2.4560000000
  C        18.4220000000        4.2500000000       -2.4560000000
  C         5.0220000000        7.7910000000       -3.6840000000
  C         1.6740000000        4.9550000000       -3.6840000000
  C         1.6740000000        6.3730000000       -3.6840000000
  C         5.0220000000        6.3730000000       -3.6840000000
  C         1.6740000000        7.0820000000       -2.4560000000
  C         5.0220000000        5.6640000000       -2.4560000000
  C         1.6740000000        8.5000000000       -2.4560000000
  C         5.0220000000        8.5000000000       -2.4560000000
  C        11.7220000000        7.7910000000       -3.6840000000
  C         8.3740000000        4.9550000000       -3.6840000000
  C         8.3740000000        6.3730000000       -3.6840000000
  C        11.7220000000        6.3730000000       -3.6840000000
  C         8.3740000000        7.0820000000       -2.4560000000
  C        11.7220000000        5.6640000000       -2.4560000000
  C         8.3740000000        8.5000000000       -2.4560000000
  C        11.7220000000        8.5000000000       -2.4560000000
  C        18.4220000000        7.7910000000       -3.6840000000
  C        15.0740000000        4.9550000000       -3.6840000000
  C        15.0740000000        6.3730000000       -3.6840000000
  C        18.4220000000        6.3730000000       -3.6840000000
  C        15.0740000000        7.0820000000       -2.4560000000
  C        18.4220000000        5.6640000000       -2.4560000000
  C        15.0740000000        8.5000000000       -2.4560000000
  C        18.4220000000        8.5000000000       -2.4560000000
  C         5.0220000000       -0.7090000000       -1.2240000000
  C         1.6740000000       -3.5450000000       -1.2240000000
  C         1.6740000000       -2.1270000000       -1.2240000000
  C         5.0220000000       -2.1270000000       -1.2240000000
  C         1.6740000000       -1.4180000000        0.0040000000
  C         5.0220000000       -2.8360000000        0.0040000000
  C         1.6740000000        0.0000000000        0.0040000000
  C         5.0220000000        0.0000000000        0.0040000000
  C        11.7220000000       -0.7090000000       -1.2240000000
  C         8.3740000000       -3.5450000000       -1.2240000000
  C         8.3740000000       -2.1270000000       -1.2240000000
  C        11.7220000000       -2.1270000000       -1.2240000000
  C         8.3740000000       -1.4180000000        0.0040000000
  C        11.7220000000       -2.8360000000        0.0040000000
  C         8.3740000000        0.0000000000        0.0040000000
  C        11.7220000000        0.0000000000        0.0040000000
  C        18.4220000000       -0.7090000000       -1.2240000000
  C        15.0740000000       -3.5450000000       -1.2240000000
  C        15.0740000000       -2.1270000000       -1.2240000000
  C        18.4220000000       -2.1270000000       -1.2240000000
  C        15.0740000000       -1.4180000000        0.0040000000
  C        18.4220000000       -2.8360000000        0.0040000000
  C        15.0740000000        0.0000000000        0.0040000000
  C        18.4220000000        0.0000000000        0.0040000000
  C         5.0220000000        3.5410000000       -1.2240000000
  C         1.6740000000        0.7050000000       -1.2240000000
  C         1.6740000000        2.1230000000       -1.2240000000
  C         5.0220000000        2.1230000000       -1.2240000000
  C         1.6740000000        2.8320000000        0.0040000000
  C         5.0220000000        1.4140000000        0.0040000000
  C         1.6740000000        4.2500000000        0.0040000000
  C         5.0220000000        4.2500000000        0.0040000000
  C        11.7220000000        3.5410000000       -1.2240000000
  C         8.3740000000        0.7050000000       -1.2240000000
  C         8.3740000000        2.1230000000       -1.2240000000
  C        11.7220000000        2.1230000000       -1.2240000000
  C         8.3740000000        2.8320000000        0.0040000000
  C        11.7220000000        1.4140000000        0.0040000000
  C         8.3740000000        4.2500000000        0.0040000000
  C        11.7220000000        4.2500000000        0.0040000000
  C        18.4220000000        3.5410000000       -1.2240000000
  C        15.0740000000        0.7050000000       -1.2240000000
  C        15.0740000000        2.1230000000       -1.2240000000
  C        18.4220000000        2.1230000000       -1.2240000000
  C        15.0740000000        2.8320000000        0.0040000000
  C        18.4220000000        1.4140000000        0.0040000000
  C        15.0740000000        4.2500000000        0.0040000000
  C        18.4220000000        4.2500000000        0.0040000000
  C         5.0220000000        7.7910000000       -1.2240000000
  C         1.6740000000        4.9550000000       -1.2240000000
  C         1.6740000000        6.3730000000       -1.2240000000
  C         5.0220000000        6.3730000000       -1.2240000000
  C         1.6740000000        7.0820000000        0.0040000000
  C         5.0220000000        5.6640000000        0.0040000000
  C         1.6740000000        8.5000000000        0.0040000000
  C         5.0220000000        8.5000000000        0.0040000000
  C        11.7220000000        7.7910000000       -1.2240000000
  C         8.3740000000        4.9550000000       -1.2240000000
  C         8.3740000000        6.3730000000       -1.2240000000
  C        11.7220000000        6.3730000000       -1.2240000000
  C         8.3740000000        7.0820000000        0.0040000000
  C        11.7220000000        5.6640000000        0.0040000000
  C         8.3740000000        8.5000000000        0.0040000000
  C        11.7220000000        8.5000000000        0.0040000000
  C        18.4220000000        7.7910000000       -1.2240000000
  C        15.0740000000        4.9550000000       -1.2240000000
  C        15.0740000000        6.3730000000       -1.2240000000
  C        18.4220000000        6.3730000000       -1.2240000000
  C        15.0740000000        7.0820000000        0.0040000000
  C        18.4220000000        5.6640000000        0.0040000000
  C        15.0740000000        8.5000000000        0.0040000000
  C        18.4220000000        8.5000000000        0.0040000000
  C         5.0220000000       -0.7090000000        1.2360000000
  C         1.6740000000       -3.5450000000        1.2360000000
  C         1.6740000000       -2.1270000000        1.2360000000
  C         5.0220000000       -2.1270000000        1.2360000000
  C         1.6740000000       -1.4180000000        2.4640000000
  C         5.0220000000       -2.8360000000        2.4640000000
  C         1.6740000000        0.0000000000        2.4640000000
  C         5.0220000000        0.0000000000        2.4640000000
  C        11.7220000000       -0.7090000000        1.2360000000
  C         8.3740000000       -3.5450000000        1.2360000000
  C         8.3740000000       -2.1270000000        1.2360000000
  C        11.7220000000       -2.1270000000        1.2360000000
  C         8.3740000000       -1.4180000000        2.4640000000
  C        11.7220000000       -2.8360000000        2.4640000000
  C         8.3740000000        0.0000000000        2.4640000000
  C        11.7220000000        0.0000000000        2.4640000000
  C        18.4220000000       -0.7090000000        1.2360000000
  C        15.0740000000       -3.5450000000        1.2360000000
  C        15.0740000000       -2.1270000000        1.2360000000
  C        18.4220000000       -2.1270000000        1.2360000000
  C        15.0740000000       -1.4180000000        2.4640000000
  C        18.4220000000       -2.8360000000        2.4640000000
  C        15.0740000000        0.0000000000        2.4640000000
  C        18.4220000000        0.0000000000        2.4640000000
  C         5.0220000000        3.5410000000        1.2360000000
  C         1.6740000000        0.7050000000        1.2360000000
  C         1.6740000000        2.1230000000        1.2360000000
  C         5.0220000000        2.1230000000        1.2360000000
  C         1.6740000000        2.8320000000        2.4640000000
  C         5.0220000000        1.4140000000        2.4640000000
  C         1.6740000000        4.2500000000        2.4640000000
  C         5.0220000000        4.2500000000        2.4640000000
  C        11.7220000000        3.5410000000        1.2360000000
  C         8.3740000000        0.7050000000        1.2360000000
  C         8.3740000000        2.1230000000        1.2360000000
  C        11.7220000000        2.1230000000        1.2360000000
  C         8.3740000000        2.8320000000        2.4640000000
  C        11.7220000000        1.4140000000        2.4640000000
  C         8.3740000000        4.2500000000        2.4640000000
  C        11.7220000000        4.2500000000        2.4640000000
  C        18.4220000000        3.5410000000        1.2360000000
  C        15.0740000000        0.7050000000        1.2360000000
  C        15.0740000000        2.1230000000        1.2360000000
  C        18.4220000000        2.1230000000        1.2360000000
  C        15.0740000000        2.8320000000        2.4640000000
  C        18.4220000000        1.4140000000        2.4640000000
  C        15.0740000000        4.2500000000        2.4640000000
  C        18.4220000000        4.2500000000        2.4640000000
  C         5.0220000000        7.7910000000        1.2360000000
  C         1.6740000000        4.9550000000        1.2360000000
  C         1.6740000000        6.3730000000        1.2360000000
  C         5.0220000000        6.3730000000        1.2360000000
  C         1.6740000000        7.0820000000        2.4640000000
  C         5.0220000000        5.6640000000        2.4640000000
  C         1.6740000000        8.5000000000        2.4640000000
  C         5.0220000000        8.5000000000        2.4640000000
  C        11.7220000000        7.7910000000        1.2360000000
  C         8.3740000000        4.9550000000        1.2360000000
  C         8.3740000000        6.3730000000        1.2360000000
  C        11.7220000000        6.3730000000        1.2360000000
  C         8.3740000000        7.0820000000        2.4640000000
  C        11.7220000000        5.6640000000        2.4640000000
  C         8.3740000000        8.5000000000        2.4640000000
  C        11.7220000000        8.5000000000        2.4640000000
  C        18.4220000000        7.7910000000        1.2360000000
  C        15.0740000000        4.9550000000        1.2360000000
  C        15.0740000000        6.3730000000        1.2360000000
  C        18.4220000000        6.3730000000        1.2360000000
  C        15.0740000000        7.0820000000        2.4640000000
  C        18.4220000000        5.6640000000        2.4640000000
  C        15.0740000000        8.5000000000        2.4640000000
  C        18.4220000000        8.5000000000        2.4640000000
  C         5.0220000000       -0.7090000000        3.6960000000
  C         1.6740000000       -3.5450000000        3.6960000000
  C         1.6740000000       -2.1270000000        3.6960000000
  C         5.0220000000       -2.1270000000        3.6960000000
  C         1.6740000000       -1.4180000000        4.9240000000
  C         5.0220000000       -2.8360000000        4.9240000000
  C         1.6740000000        0.0000000000        4.9240000000
  C         5.0220000000        0.0000000000        4.9240000000
  C        11.7220000000       -0.7090000000        3.6960000000
  C         8.3740000000       -3.5450000000        3.6960000000
  C         8.3740000000       -2.1270000000        3.6960000000
  C        11.7220000000       -2.1270000000        3.6960000000
  C         8.3740000000       -1.4180000000        4.9240000000
  C        11.7220000000       -2.8360000000        4.9240000000
  C         8.3740000000        0.0000000000        4.9240000000
  C        11.7220000000        0.0000000000        4.9240000000
  C        18.4220000000       -0.7090000000        3.6960000000
  C        15.0740000000       -3.5450000000        3.6960000000
  C        15.0740000000       -2.1270000000        3.6960000000
  C        18.4220000000       -2.1270000000        3.6960000000
  C        15.0740000000       -1.4180000000        4.9240000000
  C        18.4220000000       -2.8360000000        4.9240000000
  C        15.0740000000        0.0000000000        4.9240000000
  C        18.4220000000        0.0000000000        4.9240000000
  C         5.0220000000        3.5410000000        3.6960000000
  C         1.6740000000        0.7050000000        3.6960000000
  C         1.6740000000        2.1230000000        3.6960000000
  C         5.0220000000        2.1230000000        3.6960000000
  C         1.6740000000        2.8320000000        4.9240000000
  C         5.0220000000        1.4140000000        4.9240000000
  C         1.6740000000        4.2500000000        4.9240000000
  C         5.0220000000        4.2500000000        4.9240000000
  C        11.7220000000        3.5410000000        3.6960000000
  C         8.3740000000        0.7050000000        3.6960000000
  C         8.3740000000        2.1230000000        3.6960000000
  C        11.7220000000        2.1230000000        3.6960000000
  C         8.3740000000        2.8320000000        4.9240000000
  C        11.7220000000        1.4140000000        4.9240000000
  C         8.3740000000        4.2500000000        4.9240000000
  C        11.7220000000        4.2500000000        4.9240000000
  C        18.4220000000        3.5410000000        3.6960000000
  C        15.0740000000        0.7050000000        3.6960000000
  C        15.0740000000        2.1230000000        3.6960000000
  C        18.4220000000        2.1230000000        3.6960000000
  C        15.0740000000        2.8320000000        4.9240000000
  C        18.4220000000        1.4140000000        4.9240000000
  C        15.0740000000        4.2500000000        4.9240000000
  C        18.4220000000        4.2500000000        4.9240000000
  C         5.0220000000        7.7910000000        3.6960000000
  C         1.6740000000        4.9550000000        3.6960000000
  C         1.6740000000        6.3730000000        3.6960000000
  C         5.0220000000        6.3730000000        3.6960000000
  C         1.6740000000        7.0820000000        4.9240000000
  C         5.0220000000        5.6640000000        4.9240000000
  C         1.6740000000        8.5000000000        4.9240000000
  C         5.0220000000        8.5000000000        4.9240000000
  C        11.7220000000        7.7910000000        3.6960000000
  C         8.3740000000        4.9550000000        3.6960000000
  C         8.3740000000        6.3730000000        3.6960000000
  C        11.7220000000        6.3730000000        3.6960000000
  C         8.3740000000        7.0820000000        4.9240000000
  C        11.7220000000        5.6640000000        4.9240000000
  C         8.3740000000        8.5000000000        4.9240000000
  C        11.7220000000        8.5000000000        4.9240000000
  C        18.4220000000        7.7910000000        3.6960000000
  C        15.0740000000        4.9550000000        3.6960000000
  C        15.0740000000        6.3730000000        3.6960000000
  C        18.4220000000        6.3730000000        3.6960000000
  C        15.0740000000        7.0820000000        4.9240000000
  C        18.4220000000        5.6640000000        4.9240000000
  C        15.0740000000        8.5000000000        4.9240000000
  C        18.4220000000        8.5000000000        4.9240000000
  C         5.0220000000       -0.7090000000        6.1560000000
  C         1.6740000000       -3.5450000000        6.1560000000
  C         1.6740000000       -2.1270000000        6.1560000000
  C         5.0220000000       -2.1270000000        6.1560000000
  C         1.6740000000       -1.4180000000        7.3840000000
  C         5.0220000000       -2.8360000000        7.3840000000
  C         1.6740000000        0.0000000000        7.3840000000
  C         5.0220000000        0.0000000000        7.3840000000
  C        11.7220000000       -0.7090000000        6.1560000000
  C         8.3740000000       -3.5450000000        6.1560000000
  C         8.3740000000       -2.1270000000        6.1560000000
  C        11.7220000000       -2.1270000000        6.1560000000
  C         8.3740000000       -1.4180000000        7.3840000000
  C        11.7220000000       -2.8360000000        7.3840000000
  C         8.3740000000        0.0000000000        7.3840000000
  C        11.7220000000        0.0000000000        7.3840000000
  C        18.4220000000       -0.7090000000        6.1560000000
  C        15.0740000000       -3.5450000000        6.1560000000
  C        15.0740000000       -2.1270000000        6.1560000000
  C        18.4220000000       -2.1270000000        6.1560000000
  C        15.0740000000       -1.4180000000        7.3840000000
  C        18.4220000000       -2.8360000000        7.3840000000
  C        15.0740000000        0.0000000000        7.3840000000
  C        18.4220000000        0.0000000000        7.3840000000
  C         5.0220000000        3.5410000000        6.1560000000
  C         1.6740000000        0.7050000000        6.1560000000
  C         1.6740000000        2.1230000000        6.1560000000
  C         5.0220000000        2.1230000000        6.1560000000
  C         1.6740000000        2.8320000000        7.3840000000
  C         5.0220000000        1.4140000000        7.3840000000
  C         1.6740000000        4.2500000000        7.3840000000
  C         5.0220000000        4.2500000000        7.3840000000
  C        11.7220000000        3.5410000000        6.1560000000
  C         8.3740000000        0.7050000000        6.1560000000
  C         8.3740000000        2.1230000000        6.1560000000
  C        11.7220000000        2.1230000000        6.1560000000
  C         8.3740000000        2.8320000000        7.3840000000
  C        11.7220000000        1.4140000000        7.3840000000
  C         8.3740000000        4.2500000000        7.3840000000
  C        11.7220000000        4.2500000000        7.3840000000
  C        18.4220000000        3.5410000000        6.1560000000
  C        15.0740000000        0.7050000000        6.1560000000
  C        15.0740000000        2.1230000000        6.1560000000
  C        18.4220000000        2.1230000000        6.1560000000
  C        15.0740000000        2.8320000000        7.3840000000
  C        18.4220000000        1.4140000000        7.3840000000
  C        15.0740000000        4.2500000000        7.3840000000
  C        18.4220000000        4.2500000000        7.3840000000
  C         5.0220000000        7.7910000000        6.1560000000
  C         1.6740000000        4.9550000000        6.1560000000
  C         1.6740000000        6.3730000000        6.1560000000
  C         5.0220000000        6.3730000000        6.1560000000
  C         1.6740000000        7.0820000000        7.3840000000
  C         5.0220000000        5.6640000000        7.3840000000
  C         1.6740000000        8.5000000000        7.3840000000
  C         5.0220000000        8.5000000000        7.3840000000
  C        11.7220000000        7.7910000000        6.1560000000
  C         8.3740000000        4.9550000000        6.1560000000
  C         8.3740000000        6.3730000000        6.1560000000
  C        11.7220000000        6.3730000000        6.1560000000
  C         8.3740000000        7.0820000000        7.3840000000
  C        11.7220000000        5.6640000000        7.3840000000
  C         8.3740000000        8.5000000000        7.3840000000
  C        11.7220000000        8.5000000000        7.3840000000
  C        18.4220000000        7.7910000000        6.1560000000
  C        15.0740000000        4.9550000000        6.1560000000
  C        15.0740000000        6.3730000000        6.1560000000
  C        18.4220000000        6.3730000000        6.1560000000
  C        15.0740000000        7.0820000000        7.3840000000
  C        18.4220000000        5.6640000000        7.3840000000
  C        15.0740000000        8.5000000000        7.3840000000
  C        18.4220000000        8.5000000000        7.3840000000
     360
 i =       10, time =        1.000, E =       -97.1545611681
  C         5.0177199031       -0.7101543618       -3.6811469647
  C         1.6722348724       -3.5468978427       -3.6854960016
  C         1.6710188832       -2.1313281812       -3.6744948373
  C         5.0153545901       -2.1234717597       -3.6751100026
  C         1.6706608199       -1.4165709587       -2.4526925449
  C         5.0188527157       -2.8294184077       -2.4554481683
  C         1.6709270176        0.0039543342       -2.4624398191
  C         5.0167369741       -0.0033104766       -2.4608320563
  C        11.7266677245       -0.7130522088       -3.6846514088
  C         8.3836699403       -3.5475865597       -3.6855555795
  C         8.3819344972       -2.1299403631       -3.6803110371
  C        11.7206610987       -2.1210771163       -3.6836185976
  C         8.3759306003       -1.4233453346       -2.4587243896
  C        11.7210980382       -2.8314535764       -2.4562162527
  C         8.3825849127        0.0001905136       -2.4465101875
  C        11.7250208486        0.0015753462       -2.4559852256
  C        18.4153694595       -0.7036108760       -3.6852041246
  C        15.0761442724       -3.5427400269       -3.6810601993
  C        15.0743090433       -2.1277749860       -3.6867731061
  C        18.4264178966       -2.1245179632       -3.6809683224
  C        15.0736469634       -1.4082777070       -2.4608875499
  C        18.4222977438       -2.8377016429       -2.4487810591
  C        15.0743184517       -0.0025576705       -2.4685032655
  C        18.4210009958        0.0008345927       -2.4604775070
  C         5.0259278454        3.5381864451       -3.6768920123
  C         1.6788677420        0.7114577548       -3.6813295596
  C         1.6670134273        2.1254772340       -3.6820530000
  C         5.0224625540        2.1232849451       -3.6913655291
  C         1.6730854914        2.8350310682       -2.4614728808
  C         5.0223397439        1.4124221854       -2.4561392820
  C         1.6801495912        4.2542625710       -2.4587694205
  C         5.0249647417        4.2547136760       -2.4461552209
  C        11.7274886066        3.5467081698       -3.6822161520
  C         8.3697693411        0.7020107122       -3.6749835488
  C         8.3774925199        2.1200783482       -3.6893817504
  C        11.7170347943        2.1239314507       -3.6915632824
  C         8.3780407324        2.8300706750       -2.4578809011
  C        11.7305414697        1.4166311569       -2.4555295897
  C         8.3727360808        4.2497880674       -2.4624867937
  C        11.7219057728        4.2507252653       -2.4548015398
  C        18.4227775234        3.5337653857       -3.6861624273
  C        15.0691293710        0.7026914690       -3.6863414815
  C        15.0719432590        2.1212173802       -3.6824698179
  C        18.4192068369        2.1227148725       -3.6913309212
  C        15.0663856196        2.8316466703       -2.4567822840
  C        18.4197229893        1.4096009864       -2.4528506636
  C        15.0753490880        4.2405063191       -2.4534185763
  C        18.4290530153        4.2498922181       -2.4626559787
  C         5.0209025439        7.7892663768       -3.6806803780
  C         1.6717825585        4.9568566708       -3.6810645809
  C         1.6738421942        6.3729382013       -3.6784281492
  C         5.0173279494        6.3783882067       -3.6813073019
  C         1.6839503839        7.0867078344       -2.4552570784
  C         5.0226473649        5.6652283421       -2.4626796633
  C         1.6727747216        8.4920084916       -2.4594757910
  C         5.0176641037        8.4991263082       -2.4498743417
  C        11.7211435523        7.7885723131       -3.6754325659
  C         8.3719196098        4.9615438867       -3.6827679466
  C         8.3735263601        6.3795452205       -3.6822681156
  C        11.7199597215        6.3713429383       -3.6859129829
  C         8.3773690149        7.0871525905       -2.4533028674
  C        11.7169869336        5.6647169986       -2.4563987836
  C         8.3749497605        8.4980992547       -2.4509447486
  C        11.7183043077        8.5036018832       -2.4599051438
  C        18.4264573062        7.7847969419       -3.6831679195
  C        15.0701669245        4.9613779757       -3.6871275114
  C        15.0776773969        6.3789353115       -3.6780207021
  C        18.4255111289        6.3804362337       -3.6813749665
  C        15.0752374968        7.0830150046       -2.4509356347
  C        18.4235301781        5.6534282010       -2.4522923773
  C        15.0785528604        8.5101880328       -2.4559650467
  C        18.4177615003        8.4975591778       -2.4526969706
  C         5.0137938924       -0.7059627014       -1.2268230842
  C         1.6807254038       -3.5485352719       -1.2277228243
  C         1.6712140416       -2.1290212811       -1.2274233362
  C         5.0134297807       -2.1286291206       -1.2282588283
  C         1.6671164283       -1.4095125596        0.0015466217
  C         5.0224600314       -2.8426660252        0.0061371003
  C         1.6726070981       -0.0055873028        0.0051836103
  C         5.0316767532       -0.0025585659        0.0019814634
  C        11.7261240845       -0.6999742707       -1.2326990734
  C         8.3759939233       -3.5493535117       -1.2244707984
  C         8.3658592911       -2.1272470666       -1.2266464062
  C        11.7275874258       -2.1229005156       -1.2285778868
  C         8.3721862010       -1.4203133531        0.0025353352
  C        11.7243714941       -2.8313382946        0.0037591562
  C         8.3815016648       -0.0008238077        0.0082317351
  C        11.7183686211        0.0028674376        0.0120789013
  C        18.4273515957       -0.7138463495       -1.2250147003
  C        15.0768305833       -3.5458896028       -1.2268376483
  C        15.0739697557       -2.1318237874       -1.2216017968
  C        18.4228645272       -2.1267002078       -1.2254557120
  C        15.0742350557       -1.4270503932        0.0027931384
  C        18.4252125259       -2.8402708631       -0.0005743448
  C        15.0751122584        0.0059084015        0.0060772655
  C        18.4232226979       -0.0010221112        0.0079768342
  C         5.0243493730        3.5342869430       -1.2218343897
  C         1.6773993559        0.7011948421       -1.2241358074
  C         1.6769068811        2.1230030128       -1.2238011463