 5 0.356342224557450297E-07 0.215755277810693422E-07
 10 0.680709189988868972E-09 0.248632914046741554E-07
 15 0.681055276981442546E-07 0.360650005003524129E-07
 20 0.433832420819759775E-07 0.347848449059590508E-07
 25 0.115454454034060732E-07 0.318672456306431000E-07
 30 0.488359058030855171E-07 0.332791666538910948E-07
 35 0.323112735692769157E-07 0.318777275941352979E-07
 40 0.386095347419304489E-07 0.307020892927711987E-07
 45 0.479639233483629696E-07 0.303486924754590258E-07
 50 0.426516891299675497E-08 0.306163729903922285E-07
 55 0.211573351942629265E-07 0.289806422661333464E-07
 60 0.333212772748045965E-07 0.281286635739163866E-07
 65 0.961510410071362906E-08 0.280928348301056842E-07
 70 0.150657012813336965E-07 0.275099196917860986E-07
 75 0.266477524709460489E-07 0.281231626054562640E-07
 80 0.724341235687605167E-07 0.292393533107137390E-07
 85 0.749476970094696859E-07 0.301396820947236565E-07
 90 0.145068584486174197E-07 0.311490529067761000E-07
 95 0.622252784140284926E-07 0.320496970286433639E-07
 100 0.738395935513691461E-07 0.326860459813866367E-07
 105 0.225134026750378055E-07 0.326003405657792735E-07
 110 0.398453283358982630E-07 0.321147811307449945E-07
 115 0.273682946555126487E-07 0.318602960831469946E-07
 120 0.368995852000677027E-07 0.315992356052930754E-07
 125 0.279312886271284104E-07 0.320940700355229325E-07
 130 0.376927797568260670E-07 0.316028136935874150E-07
 135 0.277178912347097282E-07 0.312651604858834305E-07
 140 0.557628796733738675E-07 0.312244574314215730E-07
 145 0.715761518775543074E-07 0.315267964185771692E-07
 150 0.471054857231189916E-07 0.321141340971113632E-07
 155 0.675433751065626162E-07 0.339410140900355496E-07
 160 0.153530397067794264E-07 0.334943329490255893E-07
 165 0.674125669036019071E-08 0.327154498074199424E-07
 170 0.579044901135637761E-07 0.325031562695687252E-07
 175 0.250054127757922687E-07 0.326708205672948015E-07
 180 0.147852713003473912E-07 0.331662293804941590E-07
 185 0.941248107572861038E-07 0.346788840873824716E-07
 190 0.710136990482387876E-07 0.349677271135138977E-07
 195 0.388525629991357421E-07 0.349336324904839197E-07
 200 0.406265828368421974E-07 0.347736129805846251E-07
 205 0.132970289693724161E-07 0.342776284455012450E-07
 210 0.657904060416815922E-08 0.336175976900848932E-07
 215 0.266015861072246726E-07 0.332165290702944613E-07
 220 0.341632476640222433E-07 0.329740141253074726E-07
 225 0.891941378202756382E-08 0.328998429609704189E-07
 230 0.181007884595376843E-07 0.326366392567776182E-07
 235 0.134114330398093491E-08 0.322952040069131830E-07
 240 0.635012429436584938E-07 0.327094410053449072E-07
 245 0.715354586512671611E-07 0.328584246407638462E-07
 250 0.180738510030537017E-07 0.330753791695222509E-07
 255 0.161197081704525669E-07 0.333873615373366970E-07
 260 0.144721410049594217E-07 0.333033543620218196E-07
 265 0.484675819696525235E-07 0.333138421823061723E-07
 270 0.773351027359205120E-07 0.334171534285466647E-07
 275 0.962998791507857545E-07 0.339468614833461213E-07
 280 0.133951868644806595E-07 0.347173193964009024E-07
 285 0.353712080492716283E-07 0.348125349874669592E-07
 290 0.540852980611115742E-07 0.348514851046035178E-07
 295 0.293222759590223242E-07 0.346676050525064140E-07
 300 0.340090943401336178E-07 0.344361534175210460E-07
 305 0.208063233503480718E-07 0.341726387020291071E-07
 310 0.254844709530180864E-07 0.339888977133511679E-07
 315 0.712708914620656892E-07 0.346144504691331544E-07
 320 0.821197025739502408E-07 0.347797639460031339E-07
 325 0.514164608336196806E-07 0.350124585808737380E-07
 330 0.136028291380904641E-07 0.356017189353948878E-07
 335 0.387183700274858769E-07 0.360860895961310431E-07
 340 0.130463331801971964E-06 0.371272506603593256E-07
 345 0.108102599121635281E-06 0.375706762745251338E-07
 350 0.681148332819461805E-07 0.378514660060100980E-07
 355 0.861222934471469584E-07 0.386865569553733896E-07
 360 0.148143737229097427E-07 0.388770146830863479E-07
 365 0.875914001370675747E-08 0.387386439933133823E-07
 370 0.494267563991848085E-07 0.387996984152913202E-07
 375 0.646442124759938120E-07 0.389696733361730922E-07
 380 0.467153995157279245E-07 0.393563078644898401E-07
 385 0.483712040695692982E-08 0.389872863819340071E-07
 390 0.738035947891073021E-07 0.390691900193514189E-07
 395 0.219671843131684324E-07 0.392195155122238692E-07
 400 0.243778595554073019E-07 0.388857599911849194E-07
 405 0.788744704134123165E-07 0.391711218783079011E-07
 410 0.213159950607399771E-07 0.393169078164730514E-07
 415 0.122671716716197492E-07 0.389299778587003243E-07
 420 0.106396811831238508E-06 0.395113107636816976E-07
 425 0.822989300150491670E-07 0.396626356720626437E-07
 430 0.417749943517378494E-07 0.397745819686824155E-07
 435 0.466263648392679848E-07 0.401050612274899452E-07
 440 0.549803885025307224E-07 0.401148114620339418E-07
 445 0.184986306430216012E-07 0.401185719913734849E-07
 450 0.208012375652314334E-07 0.397686536340047654E-07
 455 0.392555381961438686E-07 0.398187140815197501E-07
 460 0.258612083883536297E-08 0.395090179959810527E-07
 465 0.301786881205851075E-07 0.394041986338947517E-07
 470 0.547124212648611732E-07 0.393441298362795095E-07
 475 0.412833759977998060E-07 0.395767763019238409E-07
 480 0.148405670343163765E-07 0.393018090510633337E-07
 485 0.271357836487338912E-07 0.390463258670479971E-07
 490 0.151923642985555408E-07 0.388784914483517776E-07
 495 0.326138112075371799E-07 0.387650125943468400E-07
 500 0.476972921983749713E-07 0.387957463378011438E-07
 505 0.972773670898909573E-08 0.386159994114698150E-07
 510 0.201736097319000471E-07 0.384613485152819663E-07
 515 0.488083783883842113E-07 0.382998572615914115E-07
 520 0.313758006565549292E-07 0.382644489618316087E-07
 525 0.862937817794414536E-09 0.382583681010983080E-07
 530 0.857925712962370297E-08 0.381744574269387630E-07
 535 0.325083221935655762E-07 0.381997798404358215E-07
 540 0.110664284815833417E-06 0.384299788550382030E-07
 545 0.217509174973314914E-07 0.386197161132142846E-07
 550 0.294376065396902307E-07 0.388244650551685497E-07
 555 0.757842341474292483E-07 0.389665635139317322E-07
 560 0.103712107843188027E-06 0.390807149032706865E-07
 565 0.808428272107455684E-07 0.400885737661589780E-07
 570 0.444893877439876866E-07 0.400152703197520372E-07
 575 0.278302888915794431E-07 0.400437911850859310E-07
 580 0.486429444204390337E-07 0.400269531442019924E-07
 585 0.433766404237271098E-07 0.399105741204497550E-07
 590 0.198321245324847592E-07 0.398596177123765607E-07
 595 0.319680692955136133E-07 0.396649418884661223E-07
 600 0.121881232236591482E-07 0.394885477417595914E-07
 605 0.118041054697641977E-07 0.392900463509463083E-07
 610 0.278195938400890899E-07 0.391227935991946696E-07
 615 0.130835331513648389E-07 0.390712388341778816E-07
 620 0.820725444136697851E-08 0.389846907147064908E-07
 625 0.279876172344647541E-07 0.389122695345827699E-07
 630 0.311267097005754528E-07 0.387517835500585129E-07
 635 0.517811159326020081E-07 0.386612543526278291E-07
 640 0.129128479004378241E-08 0.386417555630408136E-07
 645 0.638983767010287746E-07 0.387536261251152340E-07
 650 0.339007573341219851E-07 0.386686409682318855E-07
 655 0.519477494624118683E-07 0.388054641293054075E-07
 660 0.537349305476143594E-07 0.387411276222730129E-07
 665 0.592917473934526435E-08 0.387287714762561649E-07
 670 0.453163198541661949E-07 0.388768812008927262E-07
 675 0.544179664312117419E-07 0.388662706165419602E-07
 680 0.239979895669541519E-07 0.387827600098057036E-07
 685 0.183962092927168636E-07 0.387121047798811574E-07
 690 0.433503959151391587E-07 0.385819187036485811E-07
 695 0.249211285230674384E-07 0.386018345939211364E-07
 700 0.396950852463427473E-07 0.384823322572308433E-07
 705 0.131828096453533536E-07 0.384159604016005468E-07
 710 0.370221494662035097E-07 0.383235405499345977E-07
 715 0.467914441972789707E-07 0.382389701726999656E-07
 720 0.803121471934073163E-08 0.381845455862623249E-07
 725 0.199406691053632986E-08 0.379679524472018748E-07
 730 0.491060086379077114E-08 0.377456281467364605E-07
 735 0.300654891682961014E-08 0.375623916858241988E-07
 740 0.111930198822829405E-07 0.373490889760281381E-07
 745 0.198506021508520605E-07 0.372232567148783547E-07
 750 0.572950942315048195E-07 0.371521631076955969E-07
 755 0.160240603262998960E-07 0.371279456732506375E-07
 760 0.938550577698696030E-08 0.370219244335988337E-07
 765 0.500419091860008250E-07 0.371577410928638892E-07
 770 0.401930077989374043E-07 0.372046327109463937E-07
 775 0.103585597822194096E-06 0.375412036754885462E-07
 780 0.113910638353393253E-06 0.377501728798504769E-07
 785 0.751946198243518008E-07 0.378972818898823112E-07
 790 0.692146894297641339E-07 0.383927492533323289E-07
 795 0.677713894926873018E-07 0.384431248739874501E-07
 800 0.223286782838621754E-07 0.383802462365574450E-07
 805 0.369559876265957224E-07 0.384031302401091822E-07
 810 0.417779616054289448E-07 0.383180008213938946E-07
 815 0.749607102217049932E-08 0.381907328772569704E-07
 820 0.467597065089493636E-07 0.381700321693433140E-07
 825 0.445132454320448827E-07 0.380927991023097823E-07
 830 0.218293009772509712E-07 0.380708739377886429E-07
 835 0.233970805106733515E-07 0.381653558521041487E-07
 840 0.576628650163163343E-07 0.382218971552557460E-07
 845 0.942296484954860154E-07 0.383016294292356652E-07
 850 0.325582279359103036E-07 0.383641458058066710E-07
 855 0.501278406782688712E-07 0.385647833574536363E-07
 860 0.380733780152615891E-07 0.385066142795623885E-07
 865 0.946246287962217825E-08 0.383579342885590357E-07
 870 0.170711994508902376E-07 0.382876933772925985E-07
 875 0.810883186873762298E-07 0.384195854959507270E-07
 880 0.637019860994271749E-07 0.384259839178279418E-07
 885 0.233979270501133431E-07 0.385493521261252735E-07
 890 0.432940528217786405E-07 0.385511882584056111E-07
 895 0.619174664738986625E-07 0.385520310842307959E-07
 900 0.619311049664376405E-07 0.385406474673388059E-07
 905 0.178820066317779925E-07 0.385566892187989559E-07
 910 0.237487837149747371E-07 0.385741811090745039E-07
 915 0.185546633782751914E-07 0.384142492787767863E-07
 920 0.938098296242617529E-08 0.383548179471428246E-07
 925 0.265251874110554983E-07 0.382759583464311662E-07
 930 0.441737360866389744E-07 0.382341514278722300E-07
 935 0.384280693093162331E-07 0.382933247008246926E-07
 940 0.212391903590166023E-07 0.381631454130636227E-07
 945 0.123473020073034704E-07 0.380808602820381920E-07
 950 0.472296849255994008E-07 0.382245529563908591E-07
 955 0.181037779383617564E-07 0.381313832801050991E-07
 960 0.351300784534263544E-07 0.380243025765581885E-07
 965 0.144519266512009305E-07 0.379957439420263678E-07
 970 0.174509303338235951E-07 0.378935647725197981E-07
 975 0.585883191565942639E-07 0.379030532004286011E-07
 980 0.365449752658748502E-07 0.378530994165231545E-07
 985 0.230208427439524132E-07 0.378214216491603699E-07
 990 0.528907332794479065E-07 0.379040434254334584E-07
 995 0.296900999254020320E-07 0.378621619570216977E-07
 1000 0.171214490874800432E-07 0.378897155304223107E-07
 1005 0.937383728451609265E-07 0.382130978157334459E-07
 1010 0.382954638471647123E-08 0.381781577971833906E-07
 1015 0.947700367287227162E-08 0.380405825959420428E-07
 1020 0.904202815393190713E-07 0.380482740678528702E-07
 1025 0.149400590327192903E-07 0.381639859366726064E-07
 1030 0.124558567005550645E-07 0.380409939036604721E-07
 1035 0.135784836083644300E-06 0.382235316085856467E-07
 1040 0.557443542312829316E-08 0.384675074990587918E-07
 1045 0.836529954479079485E-08 0.385423413190915799E-07
 1050 0.829184395232447095E-07 0.387389720973661971E-07
 1055 0.844811812937127793E-08 0.386538488815779099E-07
 1060 0.390545624702336765E-07 0.386449063527615577E-07
 1065 0.778875885852893408E-07 0.386906438647937599E-07
 1070 0.322894240807351323E-07 0.388268844126472644E-07
 1075 0.463008807434025825E-07 0.387916729763913447E-07
 1080 0.121212102737760919E-06 0.388721267729440865E-07
 1085 0.333765636821552756E-07 0.391282907171819671E-07
 1090 0.750664943140046135E-07 0.391940021021542057E-07
 1095 0.104229118808429471E-07 0.391015062658083122E-07
 1100 0.410049944993824291E-07 0.389942859768076723E-07
 1105 0.612620861963945850E-07 0.391420289229214974E-07
 1110 0.978285662628113901E-08 0.390552878465866504E-07
 1115 0.514677705296770129E-07 0.390304409534034183E-07
 1120 0.864469615631302117E-07 0.392296354735670953E-07
 1125 0.401404552813815627E-07 0.392059237545600765E-07
 1130 0.553218566362189051E-07 0.391708299018954588E-07
 1135 0.383910392611965178E-07 0.391354852410055815E-07
 1140 0.107563001865006128E-07 0.391469257955294388E-07
 1145 0.744763876645439858E-07 0.393256209561380391E-07
 1150 0.136429455031136478E-07 0.392403130617149957E-07
 1155 0.714416564853450033E-07 0.392607027181236392E-07
 1160 0.236658137216758479E-07 0.392902519767263312E-07
 1165 0.374005829569993414E-07 0.392096108854622165E-07
 1170 0.138704419642645052E-07 0.391753881543112411E-07
 1175 0.731113108689273046E-07 0.391537962282975896E-07
 1180 0.436328442160139232E-07 0.393280252500742465E-07
 1185 0.359344413379442697E-07 0.392185523179640434E-07
 1190 0.522070510810460102E-07 0.393206574935842947E-07
 1195 0.408988563924646973E-08 0.392308606660396526E-07
 1200 0.502305412318066307E-07 0.392448299359129946E-07
 1205 0.173494315249760823E-07 0.391309983981115741E-07
 1210 0.501103227093933228E-07 0.391851415453900673E-07
 1215 0.306079292575594183E-07 0.391213616733462368E-07
 1220 0.661955370765884748E-07 0.392166557607767754E-07
 1225 0.434873001545735079E-07 0.393077600183001468E-07
 1230 0.140412835848771094E-07 0.392140719803448182E-07
 1235 0.969439500106236345E-07 0.393503970752305969E-07
 1240 0.830013823304434438E-08 0.393090652260890705E-07
 1245 0.324489527117851513E-07 0.392340784999982457E-07
 1250 0.128581911390419221E-07 0.391248708467096184E-07
 1255 0.180946009428291963E-07 0.390382897732186297E-07
 1260 0.624957197852512035E-07 0.391621393207881506E-07
 1265 0.141256928539749328E-07 0.390574244689076257E-07
 1270 0.596161591266519169E-07 0.391112729818862298E-07
 1275 0.210135586262102371E-07 0.391310935983128145E-07
 1280 0.242983112403934100E-07 0.390357418098223860E-07
 1285 0.159511184320633665E-07 0.389631958104229149E-07
 1290 0.398541900123567103E-07 0.388784768877961087E-07
 1295 0.104251744589115952E-06 0.391477490493138250E-07
 1300 0.894155801155158618E-07 0.392082972655604145E-07
 1305 0.106919919428269656E-06 0.392941214818039373E-07
 1310 0.949336474420090375E-08 0.393695081611995382E-07
 1315 0.124158963083400934E-07 0.393375865835899230E-07
 1320 0.642720278194608470E-07 0.393508169885358167E-07
 1325 0.150870245104767827E-07 0.393392712817454287E-07
 1330 0.415005242782857027E-07 0.392788640256980600E-07
 1335 0.262036947109463105E-07 0.392988083818579888E-07
 1340 0.974282539145480461E-08 0.391922550950216612E-07
 1345 0.304867512840930410E-07 0.391244560685666817E-07
 1350 0.534275881134186659E-07 0.391325611944424608E-07
 1355 0.415938311412443826E-07 0.392004202759797076E-07
 1360 0.682344999463701301E-08 0.390958921468797550E-07
 1365 0.257988464511688225E-07 0.390114581255070405E-07
 1370 0.565366331919381265E-07 0.390111336788655972E-07
 1375 0.142798213730276458E-07 0.390468865513788389E-07
 1380 0.422858519317250199E-07 0.389592759952969623E-07
 1385 0.539566157318078371E-07 0.390638871179040997E-07
 1390 0.116180350689726569E-07 0.389660903416122872E-07
 1395 0.109419993481959653E-06 0.391321072570783644E-07
 1400 0.319239089484820823E-07 0.391421752487374257E-07
 1405 0.584027791824138616E-07 0.391195119627345130E-07
 1410 0.728347937019770531E-07 0.393006126747728471E-07
 1415 0.411981261424226111E-07 0.393436704669935884E-07
 1420 0.250938662253371277E-07 0.392918797671072723E-07
 1425 0.140848996542771306E-06 0.394482403081315816E-07
 1430 0.281532083658502696E-07 0.396321921585924690E-07
 1435 0.118733153276088034E-07 0.395480179609649667E-07
 1440 0.949547835434700098E-07 0.396991908505914829E-07
 1445 0.474771528515555053E-07 0.397214350933269158E-07
 1450 0.813893440244006292E-07 0.399072836735813012E-07
 1455 0.214452441309346238E-07 0.398493154766107151E-07
 1460 0.303290091965447237E-07 0.397946314065465637E-07
 1465 0.511750300078471014E-07 0.399329044232600081E-07
 1470 0.303598951860284644E-07 0.398406975821658954E-07
 1475 0.703853514777885818E-07 0.399638943990908946E-07
 1480 0.704880827893228723E-08 0.398819513803707729E-07
 1485 0.519520877289934720E-07 0.399461583979509512E-07
 1490 0.226386682870237301E-07 0.398935703789431201E-07
 1495 0.142030131787833716E-06 0.400250261546014307E-07
 1500 0.161581632067857304E-07 0.401840420192945945E-07
 1505 0.950921404215500804E-08 0.400995313411786783E-07
 1510 0.627887821746319065E-07 0.401231391046756659E-07
 1515 0.214427950006560532E-07 0.401581953915614350E-07
 1520 0.553715776321457594E-07 0.400915375602998610E-07
 1525 0.242266500694446746E-07 0.401340725818115628E-07
 1530 0.905322438217088601E-07 0.401425437582951229E-07
 1535 0.112439936216426804E-06 0.404604510807775629E-07
 1540 0.436075391161716120E-07 0.404496496804484057E-07
 1545 0.360708074116586813E-07 0.403945528717714460E-07
 1550 0.544130979364576897E-07 0.404402269531933296E-07
 1555 0.291761226908119263E-07 0.404472785040060515E-07
 1560 0.367831641988131235E-07 0.403822022882916692E-07
 1565 0.633977260133612119E-07 0.404872574781764259E-07
 1570 0.263397254232791982E-08 0.403971997213885945E-07
 1575 0.793410025453801257E-07 0.404430667751193949E-07
 1580 0.325591857994538724E-07 0.404624701186396892E-07
 1585 0.509441084949535639E-08 0.403924153828399119E-07
 1590 0.648234157075728842E-07 0.403446127619714076E-07
 1595 0.111413368436793389E-06 0.405939294874658398E-07
 1600 0.271782856436557111E-08 0.405413463795490613E-07
 1605 0.913542947370573324E-07 0.406094837278968252E-07
 1610 0.483491684455388329E-07 0.407132129400273480E-07
 1615 0.658769356281531393E-07 0.407281122674209028E-07
 1620 0.285601291192778466E-07 0.407863307520736433E-07
 1625 0.316969375560978018E-07 0.407066202994346699E-07
 1630 0.119582662351035955E-06 0.408551959846791862E-07
 1635 0.317666028307297440E-08 0.409143843027619429E-07
 1640 0.457197842025385006E-07 0.409087404531118932E-07
 1645 0.886427161975867508E-07 0.409096781683483247E-07
 1650 0.141058748814943109E-06 0.411965502445941212E-07
 1655 0.838937095131420289E-08 0.413002309098805815E-07
 1660 0.247271150185009273E-07 0.412391404000686242E-07
 1665 0.441188171877371541E-07 0.413083609717036742E-07
 1670 0.121811465162912961E-07 0.412414204947050202E-07
 1675 0.112388931719070531E-06 0.413241643074944857E-07
 1680 0.196005620626312645E-07 0.414150063220838208E-07
 1685 0.387281607938782276E-07 0.413349734470300558E-07
 1690 0.702805956947665384E-07 0.414546275179442557E-07
 1695 0.229694606177742254E-07 0.414162682349959020E-07
 1700 0.554013051365730866E-07 0.413993498112859742E-07
 1705 0.779682826852836723E-07 0.415243691168268839E-07
 1710 0.387244402669301691E-07 0.415455800043477063E-07
 1715 0.186696439130987111E-07 0.415041558235907864E-07
 1720 0.125795453202930696E-07 0.414004239183231900E-07
 1725 0.822195049304600860E-07 0.414643059393025039E-07
 1730 0.388242733814365403E-07 0.415189600229929839E-07
 1735 0.339486830552449016E-07 0.414744210833197424E-07
 1740 0.377445176835705767E-07 0.414853635670242867E-07
 1745 0.846339016918404542E-10 0.413876866388372373E-07
 1750 0.522172268184917184E-07 0.413307125015053866E-07
 1755 0.910621739392478400E-07 0.415056369851437449E-07
 1760 0.146317009893220352E-07 0.414559503380134356E-07
 1765 0.724106728784509613E-07 0.414783375656246478E-07
 1770 0.128147892246732259E-07 0.414143615366706343E-07
 1775 0.981402797059720873E-07 0.415486668717643404E-07
 1780 0.223096472199960120E-07 0.415527211408712955E-07
 1785 0.338442152067581096E-07 0.415028587485785546E-07
 1790 0.779632641708820277E-07 0.415009183444825384E-07
 1795 0.325573788167673811E-07 0.415257809223854880E-07
 1800 0.629469721382974487E-08 0.414928848088535087E-07
 1805 0.502798046281205921E-07 0.414301936344477148E-07
 1810 0.279567229105561476E-07 0.414889695720930557E-07
 1815 0.339305685796753445E-07 0.414117387607855740E-07
 1820 0.598576732966731548E-07 0.414686066638538659E-07
 1825 0.171230832300699018E-07 0.414053751924305956E-07
 1830 0.409178310997436620E-08 0.413299088804875696E-07
 1835 0.978811213600701626E-07 0.413787650929358965E-07
 1840 0.171570352957110113E-07 0.414092114869785724E-07
 1845 0.225767089819354416E-07 0.413556578006394470E-07
 1850 0.158910196881071391E-07 0.412938441299316602E-07
 1855 0.655189929162071932E-07 0.412867244488930140E-07
 1860 0.643969457668666289E-07 0.414031301589620366E-07
 1865 0.359646903392417968E-09 0.413246809058609191E-07
 1870 0.137355233023352069E-07 0.412350926518542368E-07
 1875 0.811271080928974820E-07 0.412642470104211464E-07
 1880 0.417657119852623355E-08 0.412751294905606423E-07
 1885 0.276442665129502270E-07 0.412208237446496087E-07
 1890 0.897067876984864421E-07 0.413565405396135655E-07
 1895 0.234961089563027473E-07 0.413172386545081040E-07
 1900 0.617663748605162878E-07 0.412865631673018258E-07
 1905 0.165975985360036650E-07 0.413000074152251905E-07
 1910 0.592416858767383903E-07 0.412522828316773334E-07
 1915 0.181383987423790433E-07 0.412975051972965270E-07
 1920 0.394767374039921679E-07 0.412298068203509432E-07
 1925 0.643786820654042262E-07 0.413185959053262055E-07
 1930 0.167521852499853394E-07 0.412732924893094754E-07
 1935 0.722266084943492693E-07 0.413046267446229696E-07
 1940 0.179719251541511357E-08 0.412860595859446685E-07
 1945 0.482602484666401416E-07 0.412315022292143103E-07
 1950 0.193793860721093789E-07 0.412399181230090009E-07
 1955 0.429969496254085879E-07 0.411829306356916853E-07
 1960 0.685143584239370277E-07 0.412618604866310004E-07
 1965 0.170245677484471593E-07 0.412585079579039856E-07
 1970 0.175602402847190246E-07 0.411709408382343256E-07
 1975 0.714047490723340321E-07 0.411969894103658650E-07
 1980 0.542640198804352728E-07 0.412736335044244007E-07
 1985 0.143330775541686321E-07 0.412292515730249509E-07
 1990 0.129880541388473158E-06 0.413202433995883985E-07
 1995 0.389131544663525198E-07 0.413827654836721400E-07
 2000 0.118390292896569803E-07 0.414077282442326878E-07
