360
Properties=species:S:1:pos:R:3 i=115839 time=115839.0 E=-2073.6492066345 pbc="F F F"
H       30.50739371       1.94749496      11.01943875
H       31.22099325       3.09801680      11.91463487
H       46.09305139     -17.36894634      16.53478394
H       46.99324579     -17.85427472      15.28476484
H       47.41479383       2.03010080      17.45932109
H       46.29600392       2.61389739      16.60418026
H       34.19508989       3.77092340       6.21713489
H       34.45070881       2.68877708       5.25463099
H       45.35813420     -19.92103773      15.92931273
H       46.34458000     -20.02769052      14.72304366
H       26.07318639       7.25260954       3.18336272
H       26.01785225       6.08997124       4.15793492
H       39.02081145     -15.79467292      11.80839246
H       37.67841367     -15.01828617      12.22090968
H       30.71125463      -3.70760952      10.06056168
H       30.33509171      -2.13475843      10.20873814
H       49.19367799      -3.30427390      13.57075677
H       48.10584571      -2.25418716      13.50875242
H       33.59394501       0.41541301       9.75897555
H       33.80044642       0.27512135      11.39280971
H       41.27896535       9.78010261      16.45176399
H       42.73026956       9.75560320      16.01581118
H       49.47265572       2.78582559      18.59594847
H       49.71478321       2.66405692      17.04069775
H       48.87480984       9.02680978       9.63436753
H       48.44194065      10.26341256      10.41549772
H       27.34086509      10.10924167       7.33957700
H       28.14452173       9.58366390       8.61272386
H       20.99314648       8.86913407       8.43606130
H       20.89406038       8.37328951       6.99263429
H       54.78201380       9.20738892      14.05607965
H       54.12161780       9.68586514      12.79293687
H       36.61241181       6.28193382      14.69756697
H       36.42889452       4.97895606      15.38587583
H       41.49311819       6.89996002      15.76768393
H       40.41775951       5.81673259      15.70931797
H       47.72628828      -3.37483477      15.97355346
H       48.77299467      -2.55688798      16.79413337
H       22.23609751       0.10567114       3.76293910
H       23.56210229      -0.76043957       3.95668866
H       20.01249221       5.21752507       3.04821890
H       20.93961334       5.01825912       4.32573379
H       34.22288217      -6.87785759       9.47298753
H       34.45152553      -5.61330173       8.70805305
H       49.90402414     -17.82169611       3.91566392
H       48.77750772     -18.27962503       2.81214757
H       24.68305643      -8.37961843       4.01495774
H       24.70682624      -7.51638045       5.41793674
H       34.09302733      11.11871939       6.06935249
H       32.63150082      11.03661392       6.59068531
H       33.81177689      -3.88894284      17.91919677
H       32.36370729      -3.63385557      17.51091027
H       44.18194300     -18.77403460      11.21881564
H       45.17137886     -19.15981127      12.48792572
H       53.49009447       3.53974762      14.52502130
H       53.48535436       3.35051743      16.10544986
H       17.86812347      11.46026663      13.91503061
H       17.73826129      10.16728145      13.14540250
H       34.31443636     -10.80850181       7.49860353
H       33.47063063     -12.04169236       7.10472877
H       30.74381991       7.38191949       6.08681673
H       29.25303917       7.87634169       6.23271636
H       28.13510817      15.48562084      18.50940090
H       27.61564023      14.09885636      17.74793219
H       25.19428067       7.75984665      13.44959322
H       24.23180257       7.44876312      12.26984012
H       46.60083456       5.13871665       7.39916756
H       45.13573445       5.10789071       6.71606425
H       22.04990116      -4.51408142       4.63453233
H       20.82943682      -5.17452533       5.26073685
H       36.47919705     -11.02760927      10.56346414
H       37.51889914     -12.17916216      10.55378777
H       32.77239884      -0.47694398       4.29372366
H       31.71629908      -0.28013105       3.12493058
H       31.58851088       6.82235441      14.84712432
H       30.44498526       6.33786487      13.78460272
H       26.36918538      -9.72173763       5.88391344
H       25.80162733      -9.51991808       7.37715906
H       37.28295417      13.29564463       7.31538426
H       38.14823720      12.13872200       6.43897442
H       33.30914609      -9.09005628       3.71186903
H       33.55157855     -10.43060604       3.01452790
H       45.34387807      -4.76520929      10.47840331
H       45.04709206      -4.80126778       8.93994259
H       24.97246191     -15.99609854       7.32662310
H       24.48352102     -17.04837342       6.16908612
H       41.90499734      17.46405307      18.57250246
H       40.46977546      17.72224071      18.26287698
H       36.09035708      -1.02214532       6.97240661
H       36.17017538      -2.42089110       6.53265339
H       34.35352484      -6.11291392      13.01166229
H       34.76266171      -7.62875599      12.94958832
H       28.09061323      -6.60343130       6.12712457
H       27.85482537      -8.10507517       6.46554852
H       34.04891709     -13.35238909      16.66274721
H       33.48252658     -11.92736197      16.32758562
H       43.45630248      12.06505726      19.03704471
H       43.78691049      10.73215802      19.77989511
H       20.67152448      25.90542373      13.52417177
H       21.50399816      24.84763303      14.22627746
H       40.36868725      -4.53695150       7.05782134
H       39.54235948      -4.59968826       5.62981041
H       30.60179135     -18.25509872       2.86951884
H       30.65938205     -19.71779653       3.36528763
H       37.27507123      13.53120369      12.70160758
H       36.03581366      13.54582905      13.66601385
H       41.74117424       0.47285823      14.85647654
H       43.05349858       0.69279538      15.64360156
H       27.22440089       3.04612753      10.87256566
H       27.63499662       2.29284482       9.55968602
H       20.52294326      -3.25765593      14.67298049
H       19.92452937      -2.24446456      13.47496503
H       34.54896280      -6.56756149      18.38171382
H       35.32728629      -7.12940550      17.15049462
H       32.50009101      -2.53020425       3.05209243
H       32.81627122      -3.94446845       3.62458914
H       54.45925523       2.84879241      12.24917383
H       53.40355500       2.04976675      13.25404368
H       36.27652843      -9.60282621       7.09593791
H       36.55683985      -9.41727907       8.70719144
H       31.78979199       1.74663396      17.96189373
H       30.14928983       1.93786562      17.65572692
H       33.57513735      -3.96148254      12.20860836
H       34.65544652      -3.97707434      11.06188827
H       16.54214311       0.15766412       3.89492944
H       16.39116622      -0.18474883       2.46668072
H       32.16185806      10.60995243      16.17410578
H       31.17196443      10.42143564      17.50029968
H       44.78964525      14.05809071       8.13678687
H       43.61646151      15.05221470       8.29987549
H       25.95835410     -17.88117011      17.24071845
H       24.76005481     -17.10410011      17.67920584
H       30.75141102      -0.54218117      11.79954198
H       31.64876488       0.07530088      10.73864012
H       44.21244102       5.70496372      17.52745275
H       43.27794064       5.66193536      16.29968156
H       47.69717877       3.06640493      10.20335423
H       48.97846803       3.25373392      11.15096459
H       30.23473325      13.63313214       6.32122963
H       30.28988190      12.24081281       6.77072714
H       27.86193896      -4.44270203      12.55115931
H       27.70112659      -4.92302757      11.04977929
H       51.12200584       9.70790877       9.46959152
H       50.63786637       8.17302037       9.76114077
H       44.73826699       2.18743518       5.13063309
H       43.49947637       3.09523240       4.86501813
H       52.24597193      -7.38726616       9.20399304
H       52.14881788      -5.80963715       8.91902675
H       26.16339871       9.61729249       3.86966135
H       27.67892095       9.53923212       3.45995118
H       36.11707422      -6.49484928       7.21636583
H       37.64725913      -6.56004418       7.41038220
H       39.23447625       4.11286466      12.89819602
H       39.24081709       5.77729101      12.80020778
H       36.06778609      -6.00809385      10.15805359
H       37.61696869      -6.25911505      10.21098388
H       24.52735532       4.52536070      12.93111588
H       24.00184960       3.05266355      13.10388030
H       27.83100826      -0.26136297       6.32247484
H       27.20111016      -1.28607751       5.15006791
H       17.45243579      -7.40037770       6.86379151
H       17.62212782      -7.01887972       8.36784957
H       24.32632297      -1.88451050      15.15691138
H       25.15624450      -2.59994008      16.16459336
H       52.19022270      -0.17249622       9.11151299
H       50.82857258      -0.62099999       8.37263514
H       30.70711474      -2.50455850       6.78785956
H       30.95841306      -2.19543295       8.20281914
H       16.47113633      12.73111205       9.63457585
H       16.09173761      12.91662504       8.14382018
H       42.56852371       8.13220609       4.29600051
H       42.84298866       8.88944226       2.94197892
H       28.89506836      16.45272344       4.58158010
H       28.38005304      15.27420008       3.64398323
H       49.47591475      13.60079453       3.85290402
H       49.59733348      14.38273059       2.53812624
H       19.91262144      -9.13515439       9.33790206
H       19.81779033      -8.02477668      10.43404612
H       39.84548416      -4.01893661      15.36794533
H       39.55152610      -2.68348842      14.67645134
H       41.70314654      -4.51579193       9.34652435
H       41.91250153      -5.94282580       9.81357932
H       38.13606706       1.08697546      17.73471090
H       38.38630837      -0.20112312      16.87199904
H       57.87725897     -21.74287674      14.51117449
H       56.77205931     -22.81071387      14.02904782
H       24.20630098       9.66299014       4.81956935
H       23.92118774       9.24814911       3.30295511
H       51.18120285      15.80029592      15.32440342
H       49.96959725      14.94081488      14.90173696
H       26.78563198       0.50984550       4.00726040
H       26.16396154       1.76482431       3.45574338
H       53.81858469     -13.20147761      11.35539140
H       52.44966375     -13.80303122      12.09207727
H       42.93633924       4.32333680      10.57807704
H       41.63738246       4.25720525       9.69856939
H       40.58186642      -2.28921122      18.72113184
H       39.98913250      -3.63979985      18.18913505
H       26.31081143      13.05636112      15.07815375
H       27.07107126      12.55658093      13.71679654
C      -53.99965576      34.81613042       0.18653161
C      -52.58212089      34.82336321       0.25276268
C      -51.89841228      36.07594564       0.19331495
C      -50.41068624      36.00945928       0.14059305
C      -54.01943015      37.29105069       0.33855290
C      -52.56756781      37.28894145       0.11342293
C      -51.82087700      38.47106932       0.13948807
C      -50.42787390      38.50981477       0.19257710
C      -54.00442862      39.73086869       0.40142001
C      -52.55938909      39.67800656       0.34277983
C      -51.87980219      41.00992730       0.46946189
C      -50.45828681      40.98928201       0.41179718
C      -54.03177364      42.17010085       0.38706483
C      -52.60652774      42.18972193       0.43042302
C      -51.88427840      43.43156387       0.47039863
C      -50.42441917      43.47126734       0.44069944
C      -54.01699919      44.67797096       0.25754172
C      -52.56646199      44.63316858       0.29387842
C      -51.88518989      45.85751607       0.29620930
C      -50.47890407      45.89941306       0.36357825
C      -49.72692308      34.82780755       0.19752541
C      -48.31055491      34.82878507       0.05695848
C      -47.60625594      36.05989613      -0.06964532
C      -46.19476004      35.97170658       0.04020664
C      -49.72760684      37.25617208       0.13387347
C      -48.30633421      37.29837674       0.04572615
C      -47.61834996      38.53952523       0.11682353
C      -46.17975375      38.45999350       0.10702390
C      -49.73063571      39.75055808       0.14601662
C      -48.33738975      39.80977172       0.12790348
C      -47.64893840      41.00963663       0.30224269
C      -46.19609078      40.96800462       0.18475035
C      -49.74372454      42.20409422       0.46909665
C      -48.33217274      42.19320312       0.32180443
C      -47.61116574      43.45996752       0.10398479
C      -46.21285696      43.39332157       0.05751580
C      -49.72501147      44.69346991       0.35654221
C      -48.31633301      44.69701015       0.20414518
C      -47.62830581      45.89462789       0.12871559
C      -46.19986886      45.85969657       0.01567749
C      -45.48697729      34.76014895       0.04754153
C      -44.04047139      34.81064524      -0.01155315
C      -43.31120224      36.03882510       0.14058154
C      -41.89467679      36.05134604       0.22359811
C      -45.47369485      37.23882482       0.03839722
C      -44.05657735      37.24749597       0.11576817
C      -43.32517393      38.43046215       0.18779629
C      -41.95880491      38.50469413       0.36632095
C      -45.47796634      39.71096379       0.04509862
C      -44.05000537      39.66591916       0.02188417
C      -43.34264805      40.88545071       0.09283394
C      -41.91271955      40.94213449       0.25597931
C      -45.51059464      42.20477885       0.10844694
C      -44.10137415      42.15383031       0.09745949
C      -43.41914606      43.39712048       0.19113563
C      -41.95116300      43.42861250       0.27082932
C      -45.50627037      44.65337740       0.00530157
C      -44.11548998      44.67479009       0.18282230
C      -43.33591697      45.90395212       0.07544342
C      -41.89594387      45.88847401       0.20520804
O       30.40592905       2.78007352      11.49905776
O       46.17491788     -17.33781903      15.44527879
O       46.46929127       1.89683534      17.26390084
O       34.77321942       2.97081398       6.12608289
O       45.87189339     -20.58801791      15.42313638
O       26.00985130       7.00181150       4.07859548
O       38.61197971     -14.87531879      11.85608031
O       30.08932208      -2.99894958       9.80763118
O       49.10904350      -2.28982983      13.54417899
O       33.21945991       0.61258863      10.64364556
O       41.82206079       9.79049343      15.68446402
O       49.30158450       2.19805035      17.83587462
O       48.10135712       9.42341470      10.01389684
O       27.49763404       9.32813601       7.92714529
O       20.61903041       8.15284371       7.91082787
O       54.77016412       8.97124752      13.08673568
O       36.05861113       5.90417187      15.38688491
O       40.55459320       6.79477712      16.04067733
O       47.82146560      -2.92115626      16.88310392
O       23.02763231      -0.00603316       4.34237026
O       20.98130251       5.14491339       3.34094215
O       34.90890096      -6.45514439       8.89616572
O       49.03252037     -17.62581580       3.51142144
O       25.20323426      -7.82768765       4.58373700
O       33.24424456      11.56170014       5.92105345
O       32.96902069      -4.35675818      17.97744622
O       44.21047922     -19.26894941      12.05685068
O       53.28523062       3.95591600      15.37015980
O       18.36852391      10.91274517      13.27670402
O       33.64810140     -11.40770056       7.89486542
O       30.15856447       8.19955225       5.99190308
O       28.32132940      14.81122075      17.83859580
O       24.28802757       7.50234730      13.29001702
O       46.18585749       5.26623843       6.49524746
O       21.21904954      -4.30577800       5.06128495
O       36.73209879     -11.87002409      11.06094984
O       32.70822716      -0.20870457       3.35652938
O       30.63425715       6.84121809      14.64454344
O       26.63053357      -9.49445080       6.78666303
O       37.39522307      12.32333285       6.97055832
O       33.14483573     -10.05656626       3.81189759
O       44.62803102      -5.06434792       9.85717368
O       24.58800643     -16.06272337       6.40030171
O       41.01079444      17.26485870      18.97199962
O       35.49022415      -1.83968467       6.92387806
O       33.99007229      -6.97048587      13.00585080
O       28.56657638      -7.45784132       6.21869469
O       33.49796192     -12.85043367      15.98168104
O       43.27250113      11.08311313      19.02941711
O       21.50364759      25.32714326      13.36717703
O       40.28537127      -5.06801762       6.22895843
O       31.19529032     -18.84882158       3.35790160
O       37.00038263      13.79904279      13.65204714
O       42.67992373       0.66434879      14.75357456
O       27.31656115       3.19826094       9.89311436
O       20.61904045      -2.90538796      13.73428897
O       34.66451970      -7.35606148      17.84207392
O       32.16986857      -3.46673250       3.01852050
O       53.55871034       2.86417657      12.68534455
O       36.95908823      -9.77851333       7.83340372
O       30.86984976       1.29289081      17.85033178
O       34.01881022      -4.54101240      11.51195783
O       16.98488443      -0.32106508       3.19217409
O       31.54949792       9.91654703      16.71047213
O       44.32669295      14.58925514       8.79266609
O       25.50053743     -17.58823338      18.08293410
O       30.77646861      -0.34446852      10.81749476
O       43.51111506       5.13086670      17.13487934
O       48.60204990       2.88946097      10.24762205
O       29.68830971      12.93590136       6.73868389
O       27.16254026      -4.94180318      11.94490700
O       50.51663884       8.98220602       9.18188128
O       44.07896726       2.77121192       5.62049537
O       51.64174392      -6.64003949       9.04014044
O       26.98961876      10.16525626       3.74771689
O       36.97447879      -6.47815297       6.69034028
O       38.95521969       4.93112709      13.36117458
O       36.88730487      -5.82072080      10.70827129
O       23.78181783       3.92937082      12.58003294
O       27.11726703      -0.88258186       6.09840978
O       18.02668796      -6.81600595       7.47645292
O       24.50352049      -1.91002101      16.13448336
O       51.35700582      -0.63799658       9.26019468
O       31.20006752      -1.83332383       7.30265962
O       15.72348909      13.00092803       9.09611841
O       42.12386863       8.32435092       3.40595497
O       29.11197668      15.97263784       3.75261675
O       50.06343502      14.27634205       3.39380523
O       20.48383591      -8.51291356       9.94673973
O       39.18130814      -3.51016460      14.80406597
O       41.14104510      -5.30746112       9.53381549
O       38.74724745       0.71124959      17.03758358
O       57.64044602     -22.40427601      13.75632440
O       24.34519102       9.91023791       3.89212226
O       50.25201947      15.62276292      15.55606103
O       27.01062228       1.43445354       3.75407869
O       53.27073371     -13.23488893      12.18542402
O       42.52331694       4.80519464       9.85129525
O       40.04636965      -2.69488510      17.99040121
O       27.08786667      13.19917295      14.48240915
