       2
 i =        0, time =        0.000, E =       -42.0993166772
 Ar         0.0000000000        0.0000000000        0.0000000000
 Ar         0.0000000000        0.0000000000        2.0000000000
       2
 i =        1, time =        0.500, E =       -42.0993166756
 Ar         0.0000000000        0.0000000000        0.0000000000
 Ar         0.0000000000        0.0000000000       15.0000000000
