
  **** **** ******  **  PROGRAM STARTED AT              Wed Oct 23 18:38:53 2002
 ***** ** ***  *** **   PROGRAM STARTED ON      grieg.theochem.ruhr-uni-bochum.d
 **    ****   ******    PROGRAM STARTED BY                              hforbert
 ***** **    ** ** **   PROGRAM PROCESS ID                                 14064
  **** **  *******  **  PROGRAM STARTED IN 
                               /peergynt/hforbert/CP2K-cvs/cp2k/tests/Pimd/Argon

 CP2K| Program compiled at                         Tue Oct 22 12:04:30 CEST 2002
 CP2K| Program compiled on                     grieg.theochem.ruhr-uni-bochum.de
 CP2K| Program compiled for                                           Linux-i686
 CP2K| Program name                                                         FIST
 CP2K| Input file name                                               input.short
 CP2K| Project name                                                        ar108
 CP2K| Default FFT library                                                 FFTSG
 CP2K| Default basis set file                                          BASIS_SET
 CP2K| Default external potential file                                 POTENTIAL
 CP2K| Default library path                                                   ./
 CP2K| Global print level                                                      1
 CP2K| Total number of processors                                              1
 CP2K| This output from processor                                              0

 CONTROL| Run type                                                            MD
 CONTROL| Unit type                                                       KELVIN
 CONTROL| Use of symmetry                                                     No
 CONTROL| Path Integrals                                                     Yes
 CONTROL| Set file name                                                ar108.set
 CONTROL| Data file name                                               ar108.dat
 CONTROL| Print level                                                          1

 PIMD| Path Integral Molecular Dynamics Protocol
 PIMD| Number of Beads                                                        10
 PIMD| Number of kinetic+NHC integrations                                      1
 PIMD| Transformation Type                                                 STAGE



                      ************* ******** ***********   
                     ************* **********************  
                     ****     **** ****      ***********   
                     ******** ****  *******     ****       
                     *******  ****   *******   ****        
                     ****     ****       ****  ****        
                     ****     **** **********  ****        
                      ****     **** ********    ****       
                     FRONTIERS IN SIMULATION TECHNOLOGY    
                                                           
                     C.J. Mundy, S. Balasubramanian,       
                     Ken Bagchi, J. Hutter, Ari Seitsonen  
                                 Version 0.3               
                                                                           


 MOLECULE| Number of molecule types                                            1
 MOLECULE| Molecule type Molecule name           Molecules           Nose option
 MOLECULE|      1                argon              108                  MASSIVE

 CELL| Reference Cell 
 CELL| Periodic in X direction                                               YES
 CELL| Periodic in Y direction                                               YES
 CELL| Periodic in Z direction                                               YES
 CELL| Poisson Solver                                                   STANDARD
 CELL| Parameters                                    17.1580    0.0000    0.0000
 CELL|                                                0.0000   17.1580    0.0000
 CELL|                                                0.0000    0.0000   17.1580

 MOLECULE| Molecule name                                                   argon
 MOLECULE| Number of atoms                                                     1
 MOLECULE| Number of atom types                                                1
 MOLECULE|                             Atom                  Weight       Charge
 MOLECULE|                             argon               39.94800      0.00000
 FORCE FIELD| Non-bonded interaction parameters
 FORCE FIELD| LJ (12-6)      argon  argon                 epsilon [K]   119.8000
 FORCE FIELD|                                               sigma [A]     3.4050
 FORCE FIELD|                                                rcut [A]     8.4000

 MD| Molecular Dynamics Protocol 
 MD| Ensemble Type                                                           NVT
 MD| Restart Type                                                            ALL
 MD| Number of Time Steps                                                     50
 MD| Time Step [fs]                                                         5.00
 MD| Temperature [K]                                                       85.00
 MD| Verlet buffer skin [Angstrom]                                          1.00
 MD| Nose-Hoover-Chain parameters 
 MD| Nose-Hoover-Chain length                                                  3
 MD| Nose-Hoover-Chain time constant [fs]                              1000.0000
 MD| Order of Yoshida integrator                                               3
 MD| Number of multiple time steps                                             2
 MD| Print MD information every                                       50 step(s)
 MD| File type     Print frequency[steps]                             File names
 MD| Coordinates           50                                          ar108.crd
 MD| Velocities            50                                          ar108.vel
 MD| Energies              50                                         ar108.ener
 MD| PotentialEnergies     50                                          ar108.pot
 MD| Temperature           50                                         ar108.temp
 MD| Pressure Tensor       50                                        ar108.ptens
 MD| Dump                  50                                         ar108.dump

 ATOM| No input section &COORD found 
 ATOM| Try to read default file                                      ar108.dat_1
 ATOM| Box parameters [Angstrom]
 ATOM|                                    17.15800        0.00000        0.00000
 ATOM|                                     0.00000       17.15800        0.00000
 ATOM|                                     0.00000        0.00000       17.15800
 ATOM| Number of atoms read                                                  108

 ATOM| No input section &COORD found 
 ATOM| Try to read default file                                      ar108.dat_2
 ATOM| Box parameters [Angstrom]
 ATOM|                                    17.15800        0.00000        0.00000
 ATOM|                                     0.00000       17.15800        0.00000
 ATOM|                                     0.00000        0.00000       17.15800
 ATOM| Number of atoms read                                                  108

 ATOM| No input section &COORD found 
 ATOM| Try to read default file                                      ar108.dat_3
 ATOM| Box parameters [Angstrom]
 ATOM|                                    17.15800        0.00000        0.00000
 ATOM|                                     0.00000       17.15800        0.00000
 ATOM|                                     0.00000        0.00000       17.15800
 ATOM| Number of atoms read                                                  108

 ATOM| No input section &COORD found 
 ATOM| Try to read default file                                      ar108.dat_4
 ATOM| Box parameters [Angstrom]
 ATOM|                                    17.15800        0.00000        0.00000
 ATOM|                                     0.00000       17.15800        0.00000
 ATOM|                                     0.00000        0.00000       17.15800
 ATOM| Number of atoms read                                                  108

 ATOM| No input section &COORD found 
 ATOM| Try to read default file                                      ar108.dat_5
 ATOM| Box parameters [Angstrom]
 ATOM|                                    17.15800        0.00000        0.00000
 ATOM|                                     0.00000       17.15800        0.00000
 ATOM|                                     0.00000        0.00000       17.15800
 ATOM| Number of atoms read                                                  108

 ATOM| No input section &COORD found 
 ATOM| Try to read default file                                      ar108.dat_6
 ATOM| Box parameters [Angstrom]
 ATOM|                                    17.15800        0.00000        0.00000
 ATOM|                                     0.00000       17.15800        0.00000
 ATOM|                                     0.00000        0.00000       17.15800
 ATOM| Number of atoms read                                                  108

 ATOM| No input section &COORD found 
 ATOM| Try to read default file                                      ar108.dat_7
 ATOM| Box parameters [Angstrom]
 ATOM|                                    17.15800        0.00000        0.00000
 ATOM|                                     0.00000       17.15800        0.00000
 ATOM|                                     0.00000        0.00000       17.15800
 ATOM| Number of atoms read                                                  108

 ATOM| No input section &COORD found 
 ATOM| Try to read default file                                      ar108.dat_8
 ATOM| Box parameters [Angstrom]
 ATOM|                                    17.15800        0.00000        0.00000
 ATOM|                                     0.00000       17.15800        0.00000
 ATOM|                                     0.00000        0.00000       17.15800
 ATOM| Number of atoms read                                                  108

 ATOM| No input section &COORD found 
 ATOM| Try to read default file                                      ar108.dat_9
 ATOM| Box parameters [Angstrom]
 ATOM|                                    17.15800        0.00000        0.00000
 ATOM|                                     0.00000       17.15800        0.00000
 ATOM|                                     0.00000        0.00000       17.15800
 ATOM| Number of atoms read                                                  108

 ATOM| No input section &COORD found 
 ATOM| Try to read default file                                     ar108.dat_10
 ATOM| Box parameters [Angstrom]
 ATOM|                                    17.15800        0.00000        0.00000
 ATOM|                                     0.00000       17.15800        0.00000
 ATOM|                                     0.00000        0.00000       17.15800
 ATOM| Number of atoms read                                                  108

 ********************** cell_index: nonbonded neighbor list*********************
 Total # of cells used for Verlet neighbor list                                1
 # of cells in each direction =                                1 X     1 X     1
 ************************** end subroutine cell_list ***************************

 ********************** cell_index: nonbonded neighbor list*********************
 Total # of cells used for Verlet neighbor list                                1
 # of cells in each direction =                                1 X     1 X     1
 ************************** end subroutine cell_list ***************************

 ********************** cell_index: nonbonded neighbor list*********************
 Total # of cells used for Verlet neighbor list                                1
 # of cells in each direction =                                1 X     1 X     1
 ************************** end subroutine cell_list ***************************

 ********************** cell_index: nonbonded neighbor list*********************
 Total # of cells used for Verlet neighbor list                                1
 # of cells in each direction =                                1 X     1 X     1
 ************************** end subroutine cell_list ***************************

 ********************** cell_index: nonbonded neighbor list*********************
 Total # of cells used for Verlet neighbor list                                1
 # of cells in each direction =                                1 X     1 X     1
 ************************** end subroutine cell_list ***************************

 ********************** cell_index: nonbonded neighbor list*********************
 Total # of cells used for Verlet neighbor list                                1
 # of cells in each direction =                                1 X     1 X     1
 ************************** end subroutine cell_list ***************************

 ********************** cell_index: nonbonded neighbor list*********************
 Total # of cells used for Verlet neighbor list                                1
 # of cells in each direction =                                1 X     1 X     1
 ************************** end subroutine cell_list ***************************

 ********************** cell_index: nonbonded neighbor list*********************
 Total # of cells used for Verlet neighbor list                                1
 # of cells in each direction =                                1 X     1 X     1
 ************************** end subroutine cell_list ***************************

 ********************** cell_index: nonbonded neighbor list*********************
 Total # of cells used for Verlet neighbor list                                1
 # of cells in each direction =                                1 X     1 X     1
 ************************** end subroutine cell_list ***************************

 ********************** cell_index: nonbonded neighbor list*********************
 Total # of cells used for Verlet neighbor list                                1
 # of cells in each direction =                                1 X     1 X     1
 ************************** end subroutine cell_list ***************************


 ENERGY| Initialization proceeding


 ******************************** GO CP2K GO! **********************************
 INITIAL POTENTIAL ENERGY[K]           =                          -0.6694003E+05
 INITIAL KINETIC ENERGY[K]             =                           0.1759852E+05
 INITIAL TEMPERATURE[K]                =                           0.8218591E+02
 INITIAL PRESSURE[bar]                 =                           0.5152129E+03
 INITIAL VOLUME[A^3]                   =                           0.5051263E+04
 INITIAL CELL LNTHS[A]      =      0.1715800E+02   0.1715800E+02   0.1715800E+02
 INITIAL CELL ANGLS[deg]    =      0.9000000E+02   0.9000000E+02   0.9000000E+02
 ******************************** GO CP2K GO! **********************************

 *******************************************************************************
 ENSEMBLE TYPE                =                                              NVT
 STEP NUMBER                  =                                               50
 CONSERVED QNTY               =                                    0.3530316E+06

                                                   INSTANTANEOUS        AVERAGES
 {E-E0}/E0                    =                    0.7067545E-05   0.3622074E-05
 POTENTIAL ENERGY[K]          =                   -0.6708997E+05  -0.6716192E+05
 KINETIC ENERGY[K]            =                    0.1290173E+05   0.1519933E+05
 TEMPERATURE[K]               =                    0.8202703E+02   0.8444330E+02
 PRESSURE[bar]                =                    0.4733260E+03   0.4533992E+03
 LIST UPDATES[steps]          =                            47.00           47.00
 *******************************************************************************


 -------------------------------------------------------------------------------
 -                                                                             -
 -                                T I M I N G                                  -
 -                                                                             -
 -------------------------------------------------------------------------------
 SUBROUTINE                        CALLS  CPU TIME T  PERFORMANCE   ELAPSED TIME
 CP2K                                  1     15.83 I       ---             15.91
 CNTL_WORK                             1     15.49 I       ---             15.55
 VELOCITY VERLET                      50     13.22 I       ---             13.25
 FORCE                               510     10.31 I       ---             10.34
 NONBOND                             510      8.01 E  21.7 Mflops           8.02
 LNHC                               1000      3.97 I  29.9 Mflops           3.99
 VERLET_LIST                          20      2.17 I  35.9 KIs              2.19
 LIST_CONTROL                        510      2.17 I       ---              2.19
 FIST_INIT                             1      0.34 I       ---              0.36
 -------------------------------------------------------------------------------


  **** **** ******  **  PROGRAM ENDED AT                Wed Oct 23 18:39:12 2002
 ***** ** ***  *** **   PROGRAM RAN ON          grieg.theochem.ruhr-uni-bochum.d
 **    ****   ******    PROGRAM RAN BY                                  hforbert
 ***** **    ** ** **   PROGRAM PROCESS ID                                 14064
  **** **  *******  **  PROGRAM RAN IN     
                               /peergynt/hforbert/CP2K-cvs/cp2k/tests/Pimd/Argon

