 10 0.242161119457093206E-06 0.185082988370071024E-06
 20 0.726838449511825112E-07 0.163714503450204924E-06
 30 0.185958301163831931E-06 0.144465688706251411E-06
 40 0.881150689880913164E-07 0.131520218055498101E-06
 50 0.268901004446126862E-07 0.120893885023681748E-06
 60 0.144157150438618621E-06 0.114676751233402759E-06
 70 0.246862457019078458E-06 0.134994935923647793E-06
 80 0.566249576754747254E-06 0.162768496917434426E-06
 90 0.786017923771688179E-06 0.216615464881090236E-06
 100 0.112311967462868320E-05 0.292634288634811474E-06
 110 0.103304759297671385E-05 0.362598965482088202E-06
 120 0.998539044518286774E-06 0.412127945794237948E-06
 130 0.958951625913665018E-06 0.456669528638230545E-06
 140 0.769652017778475924E-06 0.482772244632955073E-06
 150 0.385930183262838761E-06 0.485529263963771353E-06
 160 0.145016140145623954E-06 0.476250254667262501E-06
 170 0.108582560017328050E-06 0.454075621171950862E-06
 180 0.245821239794220875E-06 0.433763806132348981E-06
 190 0.481801664667307366E-06 0.422844908843896129E-06
 200 0.481985137903059602E-06 0.422971897835039418E-06
 210 0.599249351125560032E-06 0.430826398238230039E-06
 220 0.895198788454204444E-06 0.444576692221537436E-06
 230 0.982003811108141794E-06 0.466929023894668137E-06
 240 0.217294012404503362E-05 0.505782404395452372E-06
 250 0.199941512970357225E-05 0.573472513119284391E-06
 260 0.162243188856633086E-05 0.624741982350108533E-06
 270 0.149909189769046347E-05 0.662133062386231728E-06
 280 0.140582057009914862E-05 0.688936904239032611E-06
 290 0.144579248834622054E-05 0.713742468739820536E-06
 300 0.159587866509408233E-05 0.736138744807984592E-06
 310 0.200752519237016627E-05 0.771429823537127957E-06
 320 0.198624676029770915E-05 0.809766649535294751E-06
 330 0.196035581263982170E-05 0.845755799767908508E-06
 340 0.192639846398089965E-05 0.878149717803152449E-06
 350 0.201908355035552399E-05 0.910159409802712390E-06
 360 0.206211427383939961E-05 0.942104179874822580E-06
 370 0.235926373920241237E-05 0.976758864970732978E-06
 380 0.261687096379748587E-05 0.101596329612478335E-05
 390 0.294420993703912282E-05 0.106335846404839179E-05
 400 0.290877288701825145E-05 0.110906279741065061E-05
 410 0.279757694288696559E-05 0.115013210714066201E-05
 420 0.312403654783101194E-05 0.119310532619181221E-05
 430 0.353248148490789419E-05 0.124393692555696680E-05
 440 0.363581475320156042E-05 0.129798740447956438E-05
 450 0.363296971295723153E-05 0.135042271688929465E-05
 460 0.360775349211888262E-05 0.139983205272209213E-05
 470 0.338057918668852679E-05 0.144531322330429527E-05
 480 0.341354812979026057E-05 0.148487483121747829E-05
 490 0.344071026913400043E-05 0.152448574093410446E-05
 500 0.340126377458241523E-05 0.156158401441269588E-05
 510 0.324024368148823982E-05 0.159525691103405186E-05
 520 0.329717421890278363E-05 0.162855500539187313E-05
 530 0.324690235832918799E-05 0.165911876405098462E-05
 540 0.300746629766246069E-05 0.168605389283431567E-05
 550 0.347296718099461403E-05 0.171423446308832013E-05
 560 0.344474841974503135E-05 0.174629390473511028E-05
 570 0.343140065600802196E-05 0.177563799386015694E-05
 580 0.376074612330227384E-05 0.180671903905817288E-05
 590 0.399576480556180821E-05 0.184180674348559561E-05
 600 0.402283529213215446E-05 0.187857340172097715E-05
 610 0.417941999339973873E-05 0.191502544352009639E-05
 620 0.407663626912642160E-05 0.194980122180116022E-05
 630 0.436830631097190125E-05 0.198492573714846065E-05
 640 0.440398012705597798E-05 0.202236594314294795E-05
 650 0.426450335465204987E-05 0.205785821580557361E-05
 660 0.437932730110744314E-05 0.209160978956171652E-05
 670 0.420562530329708750E-05 0.212460269032261259E-05
 680 0.437043345046304805E-05 0.215530195038862805E-05
 690 0.432223837768215510E-05 0.218689007947759729E-05
 700 0.445556860510075509E-05 0.221832273947912716E-05
 710 0.456550933519766047E-05 0.225051154693170707E-05
 720 0.475554925346565412E-05 0.228400128929814499E-05
 730 0.449369815855340659E-05 0.231528119625563546E-05
 740 0.440780073529141510E-05 0.234407534647648681E-05
 750 0.457806095056746153E-05 0.237329881328090708E-05
 760 0.470837849219333189E-05 0.240346343837163367E-05
 770 0.466404435525054706E-05 0.243276563594500225E-05
 780 0.475162200381176064E-05 0.246091524561791027E-05
 790 0.491180033614465764E-05 0.249023437152059085E-05
 800 0.505538373062651636E-05 0.252134385388806582E-05
 810 0.553891927030722419E-05 0.255513309623502209E-05
 820 0.545218979551481859E-05 0.259154383456839899E-05
 830 0.466327927255848787E-05 0.262104842690188605E-05
 840 0.494868931389339724E-05 0.264546363523171288E-05
 850 0.548750714967077044E-05 0.267769275430369178E-05
 860 0.570393132765209547E-05 0.271152119215600145E-05
 870 0.558040451454092205E-05 0.274470953516494370E-05
 880 0.569778964206193273E-05 0.277756288812403902E-05
 890 0.557132141873492719E-05 0.280976453685965064E-05
 900 0.568008899205779468E-05 0.284043840534949027E-05
 910 0.545008777132961051E-05 0.287017536136943760E-05
 920 0.544825703662123387E-05 0.289879041570478536E-05
 930 0.559520473994180212E-05 0.292686003197699559E-05
 940 0.542165003418285993E-05 0.295241242792849440E-05
 950 0.565237890811184437E-05 0.297954345841096716E-05
 960 0.579793732290146717E-05 0.300848688054036120E-05
 970 0.571940539562191787E-05 0.303576663078516787E-05
 980 0.585480796568157801E-05 0.306442156591541056E-05
 990 0.552638867122404638E-05 0.309095424033499661E-05
 1000 0.558199891714601437E-05 0.311606644076369881E-05
 1010 0.556149487788877979E-05 0.314015844267218231E-05
 1020 0.573912144412199995E-05 0.316434896660622009E-05
 1030 0.588914050445725257E-05 0.318994591066196984E-05
 1040 0.610427216677079340E-05 0.321739700704821327E-05
 1050 0.613256009852322013E-05 0.324515162354999567E-05
 1060 0.624175450140100416E-05 0.327279187253408009E-05
 1070 0.612917518345914351E-05 0.330030605493660766E-05
 1080 0.657452726346068493E-05 0.332806545562606757E-05
 1090 0.657433051790230984E-05 0.335748288556603284E-05
 1100 0.653254428153714313E-05 0.338589841497604964E-05
 1110 0.665866108256695255E-05 0.341529193590617640E-05
 1120 0.636673142614068098E-05 0.344243883204413264E-05
 1130 0.638818190788714144E-05 0.346867428163350030E-05
 1140 0.610163193171037016E-05 0.349317074466940382E-05
 1150 0.599933142668806240E-05 0.351518681697178254E-05
 1160 0.588587782190220249E-05 0.353536735092239008E-05
 1170 0.607677902912790626E-05 0.355689596725206564E-05
 1180 0.636573600453299002E-05 0.357978288184120246E-05
 1190 0.631666282191835962E-05 0.360335489909611714E-05
 1200 0.625528238240376864E-05 0.362603115282217128E-05
 1210 0.647564017405425387E-05 0.364900249537776904E-05
 1220 0.680522189856930705E-05 0.367379388479415875E-05
 1230 0.671329474042313926E-05 0.369884615961036040E-05
 1240 0.630086330870329949E-05 0.372069210082691797E-05
 1250 0.630214138559446537E-05 0.374106125470833883E-05
 1260 0.635987477953225599E-05 0.376213404954594630E-05
 1270 0.632764921037214793E-05 0.378312669403686022E-05
 1280 0.630370654639083976E-05 0.380246538219087084E-05
 1290 0.606808989086093439E-05 0.382124226541550295E-05
 1300 0.619325272450861246E-05 0.383881855457323437E-05
 1310 0.642511431827257029E-05 0.385793799403257722E-05
 1320 0.589351249910093595E-05 0.387532801688706962E-05
 1330 0.601999115758074778E-05 0.389078101731830073E-05
 1340 0.596916555399140658E-05 0.390636706423788533E-05
 1350 0.567066332084198263E-05 0.392054571451850149E-05
 1360 0.580375992626588102E-05 0.393354717088158376E-05
 1370 0.562108231012294244E-05 0.394634368406251980E-05
 1380 0.570294296431588110E-05 0.395827063932424482E-05
 1390 0.578387650685288670E-05 0.397092088553233714E-05
 1400 0.599139908066634979E-05 0.398498750519638867E-05
 1410 0.560542685766066543E-05 0.399722726527261389E-05
 1420 0.557493785370698597E-05 0.400838080322379072E-05
 1430 0.546700418864162732E-05 0.401894694663133898E-05
 1440 0.519166018065540674E-05 0.402800092180484019E-05
 1450 0.524783130673019134E-05 0.403584598315616155E-05
 1460 0.500699356906218106E-05 0.404359616108578715E-05
 1470 0.478881835164812332E-05 0.404906249416940364E-05
 1480 0.504840696693920611E-05 0.405580897298189004E-05
 1490 0.476913784364900930E-05 0.406142899002993595E-05
 1500 0.531043275013719945E-05 0.406769882990283285E-05
 1510 0.513777283667492040E-05 0.407487118947307228E-05
 1520 0.530826767131661139E-05 0.408252626755951690E-05
 1530 0.461721243103940939E-05 0.408801227573519181E-05
 1540 0.426613391434366043E-05 0.409043836103854293E-05
 1550 0.426688696684619704E-05 0.409165943234588119E-05
 1560 0.410969533927096070E-05 0.409216552473303359E-05
 1570 0.419426959802256396E-05 0.409291072124503271E-05
 1580 0.427560171113835536E-05 0.409353035139374618E-05
 1590 0.413719788641562564E-05 0.409457280779486999E-05
 1600 0.403846148725158076E-05 0.409449620951407832E-05
 1610 0.408131330911511442E-05 0.409435936559356258E-05
 1620 0.416358140168555037E-05 0.409472087013428993E-05
 1630 0.390850258093823762E-05 0.409416934831900182E-05
 1640 0.371090029227579278E-05 0.409239176695771302E-05
 1650 0.379474660128399810E-05 0.409073827177257291E-05
 1660 0.374022711850201917E-05 0.408859969444696157E-05
 1670 0.386867420344883644E-05 0.408708831813675473E-05
 1680 0.386295824190119111E-05 0.408585811587666801E-05
 1690 0.374474386676060848E-05 0.408428282771378924E-05
 1700 0.379815077966763875E-05 0.408243363161428333E-05
 1710 0.387605955583604012E-05 0.408078165412673615E-05
 1720 0.409842934918558668E-05 0.408064608623766648E-05
 1730 0.421441621024392937E-05 0.408076802769399370E-05
 1740 0.426121785942740991E-05 0.408175221723168662E-05
 1750 0.470444165041203019E-05 0.408407253752714270E-05
 1760 0.463996234572300925E-05 0.408755716126555031E-05
 1770 0.460928647990207213E-05 0.409049196802553183E-05
 1780 0.462591133509741829E-05 0.409355150187035029E-05
 1790 0.459646630169393047E-05 0.409622978980051836E-05
 1800 0.512827092652785429E-05 0.410034997723891567E-05
 1810 0.483800138248370772E-05 0.410572636922606946E-05
 1820 0.497612625561853198E-05 0.411016598722334355E-05
 1830 0.482537933117676401E-05 0.411433265243121347E-05
 1840 0.482733843855860745E-05 0.411831469896700731E-05
 1850 0.495515480846688454E-05 0.412261730998023410E-05
 1860 0.501134773151800746E-05 0.412668779333977191E-05
 1870 0.509714992955453642E-05 0.413215894648842710E-05
 1880 0.482136918581770659E-05 0.413645271350889655E-05
 1890 0.488588751164906039E-05 0.414023186840524402E-05
 1900 0.500046062409224540E-05 0.414415130198470663E-05
 1910 0.472976485601298629E-05 0.414964452434570568E-05
 1920 0.515723652563136118E-05 0.415386568660713160E-05
 1930 0.523463673980718873E-05 0.415964531132707975E-05
 1940 0.510086778886653777E-05 0.416524632857616099E-05
 1950 0.501277584721378926E-05 0.416962967045434859E-05
 1960 0.506126444996723903E-05 0.417439376394933392E-05
 1970 0.497397598859288735E-05 0.417831525553181583E-05
 1980 0.447523239917036739E-05 0.418053346025061828E-05
 1990 0.448311434131488422E-05 0.418230616534303562E-05
 2000 0.439215584603895693E-05 0.418327876015619993E-05
 2010 0.399557028696067630E-05 0.418398222291798570E-05
 2020 0.385798269683540834E-05 0.418284123135372706E-05
 2030 0.383022192023672885E-05 0.418108979045400384E-05
 2040 0.452402907224231729E-05 0.418184185657519014E-05
 2050 0.507964636347403540E-05 0.418361366683761254E-05
 2060 0.506075731731397221E-05 0.418801325655118825E-05
 2070 0.512174050744762653E-05 0.419208961406379246E-05
 2080 0.543053689924754967E-05 0.419777603631843670E-05
 2090 0.519735417255886110E-05 0.420296520298129700E-05
 2100 0.525707833861350767E-05 0.420769237595879931E-05
 2110 0.520051584601326930E-05 0.421319285422066931E-05
 2120 0.509955385123229608E-05 0.421763940117563923E-05
 2130 0.489772591199721379E-05 0.422136346912510198E-05
 2140 0.500177696453807174E-05 0.422474580752370884E-05
 2150 0.495037835122777732E-05 0.422847877678226068E-05
 2160 0.507287958221803730E-05 0.423231207296028281E-05
 2170 0.500942438848795854E-05 0.423578814275355326E-05
 2180 0.544644498270246811E-05 0.424051830985850233E-05
 2190 0.563572208526590954E-05 0.424671767863159382E-05
 2200 0.603984781706135768E-05 0.425379920534723122E-05
 2210 0.595467573858830568E-05 0.426130285451456124E-05
 2220 0.616294162341024326E-05 0.426932636459720763E-05
 2230 0.607279725287799147E-05 0.427760932331661114E-05
 2240 0.598219036212657855E-05 0.428529740215957590E-05
 2250 0.582861750402463633E-05 0.429274660757545193E-05
 2260 0.604033417898678205E-05 0.430015469301372257E-05
 2270 0.598777972229012615E-05 0.430793750686475984E-05
 2280 0.587560203076965063E-05 0.431498934876924577E-05
 2290 0.592309813531957430E-05 0.432202355672274164E-05
 2300 0.595712357784649379E-05 0.432911522664141204E-05
 2310 0.615674100112379284E-05 0.433688763284399375E-05
 2320 0.705965515743176001E-05 0.434658227897046122E-05
 2330 0.714193783854377949E-05 0.435831590817890686E-05
 2340 0.693218210080457475E-05 0.436957798017085990E-05
 2350 0.717133880838582903E-05 0.438135965854004796E-05
 2360 0.689286865987825757E-05 0.439234204715927102E-05
 2370 0.690509374898655192E-05 0.440281746331018340E-05
 2380 0.682818603610396723E-05 0.441315711439290769E-05
 2390 0.683433180139535728E-05 0.442288193029469709E-05
 2400 0.668460267527939465E-05 0.443235088488779327E-05
 2410 0.654349875670980540E-05 0.444134014215397478E-05
 2420 0.646275968876055731E-05 0.445005344564589943E-05
 2430 0.637557926846979429E-05 0.445812440124800832E-05
 2440 0.647850108540184123E-05 0.446602601939465524E-05
 2450 0.654769942501240473E-05 0.447449777219051811E-05
 2460 0.652619027164567908E-05 0.448292074478908463E-05
 2470 0.683905422395262656E-05 0.449200510686685864E-05
 2480 0.678104908088701810E-05 0.450090786964686131E-05
 2490 0.680118356692589096E-05 0.451015774353575105E-05
 2500 0.664908704983447942E-05 0.451877380487891706E-05
 2510 0.676527576479078659E-05 0.452764237158023041E-05
 2520 0.704444636105583026E-05 0.453721512127388435E-05
 2530 0.703839449600809824E-05 0.454724373792138550E-05
 2540 0.732150003092410746E-05 0.455786415026035653E-05
 2550 0.734490904309881196E-05 0.456865372058073153E-05
 2560 0.737601232060630871E-05 0.457966259942997841E-05
 2570 0.735667542123595109E-05 0.459074663436764143E-05
 2580 0.711335039597878733E-05 0.460065722352504544E-05
 2590 0.749898742885952778E-05 0.461069849652878341E-05
 2600 0.760418361420183020E-05 0.462185271164498239E-05
 2610 0.739832040514059664E-05 0.463314059276713278E-05
 2620 0.722989202172079346E-05 0.464317507746314320E-05
 2630 0.702192059911849348E-05 0.465305941675070723E-05
 2640 0.725210924990469003E-05 0.466256673570301551E-05
 2650 0.761718912396606239E-05 0.467327114507409129E-05
 2660 0.779531618659165991E-05 0.468473296112488722E-05
 2670 0.784836701297875957E-05 0.469658359555629816E-05
 2680 0.800167208235994425E-05 0.470869815194509827E-05
 2690 0.795458649333975768E-05 0.472094312186960724E-05
 2700 0.817564071020412710E-05 0.473330473409614214E-05
 2710 0.779744768519925704E-05 0.474491969045271555E-05
 2720 0.813576102467138051E-05 0.475687767211703501E-05
 2730 0.805598580142240441E-05 0.476913126990647055E-05
 2740 0.784530997524736957E-05 0.478065839858393339E-05
 2750 0.800815613484407273E-05 0.479187530166308270E-05
 2760 0.793108743059797445E-05 0.480327811140587462E-05
 2770 0.766597818372004589E-05 0.481392099914318269E-05
 2780 0.747195249115468211E-05 0.482372089329412664E-05
 2790 0.753926891148995811E-05 0.483325660055212833E-05
 2800 0.734074697512289063E-05 0.484256644754483019E-05
 2810 0.745817083540901208E-05 0.485169538049498428E-05
 2820 0.740718034118984861E-05 0.486094966630823516E-05
 2830 0.751112614679933795E-05 0.487010794677254232E-05
 2840 0.777315694174648415E-05 0.487990017875096509E-05
 2850 0.743907162160298574E-05 0.488929739528944631E-05
 2860 0.750107682797761744E-05 0.489863018260040787E-05
 2870 0.717832420347422344E-05 0.490676891510123163E-05
 2880 0.644290005051054121E-05 0.491260983774128447E-05
 2890 0.628984501055318527E-05 0.491749727891857971E-05
 2900 0.638035722674420271E-05 0.492231223803428620E-05
 2910 0.675558433245676472E-05 0.492798430715869672E-05
 2920 0.676246968873030609E-05 0.493435780351089222E-05
 2930 0.667673826519533613E-05 0.494045687997385869E-05
 2940 0.643757283440229356E-05 0.494598267004309426E-05
 2950 0.653237340210109020E-05 0.495151800095654077E-05
 2960 0.655861346145360372E-05 0.495697881103631700E-05
 2970 0.635154550198184743E-05 0.496217263926161551E-05
 2980 0.625961355314917489E-05 0.496666368085523963E-05
 2990 0.600483974488620891E-05 0.497050950840911296E-05
 3000 0.590820641925790980E-05 0.497371447034124892E-05
 3010 0.564702750117767280E-05 0.497613377804342909E-05
 3020 0.520378855326155904E-05 0.497732914262971713E-05
 3030 0.528541589554497083E-05 0.497842309404508817E-05
 3040 0.542393150527627769E-05 0.497942730895318786E-05
 3050 0.559064759298201289E-05 0.498119561143961530E-05
 3060 0.553422529612300248E-05 0.498284053094302235E-05
 3070 0.559367052034836529E-05 0.498462786039687003E-05
 3080 0.545109218042849047E-05 0.498634700521584788E-05
 3090 0.538876055593381077E-05 0.498772921837533937E-05
 3100 0.545134797640096780E-05 0.498907890920639975E-05
 3110 0.528954772155305547E-05 0.499024510275430022E-05
 3120 0.588346389046786941E-05 0.499249762727485883E-05
 3130 0.579700280783750664E-05 0.499519450505448446E-05
 3140 0.587744975145399568E-05 0.499772217289664535E-05
 3150 0.583344659309396036E-05 0.500040512747660774E-05
 3160 0.606098382723196501E-05 0.500354939964192284E-05
 3170 0.612013517196679903E-05 0.500673023078626811E-05
 3180 0.580456340156538940E-05 0.500937693800468138E-05
 3190 0.597802498757123340E-05 0.501208438246881255E-05
 3200 0.599976054892155084E-05 0.501502813976030520E-05
 3210 0.608993590407264719E-05 0.501838178043394818E-05
 3220 0.619038186135871359E-05 0.502202929556857808E-05
 3230 0.616379311311878459E-05 0.502543922226710376E-05
 3240 0.613374362751691393E-05 0.502901982578723397E-05
 3250 0.601942618259088237E-05 0.503218662547433755E-05
 3260 0.610408110192502825E-05 0.503523831458292590E-05
 3270 0.605132656381471005E-05 0.503837596002901252E-05
 3280 0.617543810475962882E-05 0.504164761294557386E-05
 3290 0.657769889031064820E-05 0.504547931234497422E-05
 3300 0.669025897142063281E-05 0.505018003785549380E-05
 3310 0.681169302267243133E-05 0.505518051109585325E-05
 3320 0.700831945795387943E-05 0.506069564692986787E-05
 3330 0.736864855847199325E-05 0.506712148085015441E-05
 3340 0.701099669013888708E-05 0.507357203210858982E-05
 3350 0.693359248628013587E-05 0.507915761489026571E-05
 3360 0.683542164025448720E-05 0.508449373811988664E-05
 3370 0.663027651477122096E-05 0.508940140645012617E-05
 3380 0.644845606586294482E-05 0.509353663840545238E-05
 3390 0.643341264306902081E-05 0.509765564038828958E-05
 3400 0.639189362305159109E-05 0.510139188259043360E-05
 3410 0.673801924424276096E-05 0.510553045575508383E-05
 3420 0.685024756209716953E-05 0.511054032649914676E-05
 3430 0.698259902368416314E-05 0.511573484686979651E-05
 3440 0.713565928251243336E-05 0.512143840935808709E-05
 3450 0.681640965498154363E-05 0.512656360434065958E-05
 3460 0.686043855777986619E-05 0.513122510304344961E-05
 3470 0.701578279546810786E-05 0.513639548691811638E-05
 3480 0.702669035357876072E-05 0.514178739903686984E-05
 3490 0.709793318452564190E-05 0.514723334023910963E-05
 3500 0.730127008565201260E-05 0.515319471942492007E-05
 3510 0.745711376161925010E-05 0.515955670294535015E-05
 3520 0.735162016516123721E-05 0.516606259350449675E-05
 3530 0.756504146635762139E-05 0.517249351753976763E-05
 3540 0.751797969853067768E-05 0.517924893871970840E-05
 3550 0.761087070476276236E-05 0.518598671766222134E-05
 3560 0.782521962625832884E-05 0.519294953802211412E-05
 3570 0.782195480556940528E-05 0.520033471876996814E-05
 3580 0.762140284950330195E-05 0.520736639047159465E-05
 3590 0.796741368520853584E-05 0.521441403731624440E-05
 3600 0.800575496708911494E-05 0.522211664768572005E-05
 3610 0.796264821040165792E-05 0.522966289064676042E-05
 3620 0.787616793196545821E-05 0.523729210591752247E-05
 3630 0.806554904291196811E-05 0.524492161378199258E-05
 3640 0.798482627106390047E-05 0.525254095084754180E-05
 3650 0.798252847917401602E-05 0.526000851700210479E-05
 3660 0.796473795306305237E-05 0.526741153397475278E-05
 3670 0.779868944149720802E-05 0.527405357103171320E-05
 3680 0.806748770657936326E-05 0.528145467867076146E-05
 3690 0.807120822740599665E-05 0.528897384717409427E-05
 3700 0.840494809055817560E-05 0.529661368328813860E-05
 3710 0.821546224192101289E-05 0.530473702060600998E-05
 3720 0.819565771777585929E-05 0.531274317243708540E-05
 3730 0.872315975267585805E-05 0.532081412109462526E-05
 3740 0.886827229744604931E-05 0.532989108712053190E-05
 3750 0.899956713971622195E-05 0.533959820814075564E-05
 3760 0.906899435046609169E-05 0.534953125662971656E-05
 3770 0.902698996171191302E-05 0.535934664749112071E-05
 3780 0.887161860640793853E-05 0.536897031563612234E-05
 3790 0.872390653835103187E-05 0.537812703066712677E-05
 3800 0.885561806877773493E-05 0.538730220391829438E-05
 3810 0.895071984409429436E-05 0.539667999903971686E-05
 3820 0.903565123473325659E-05 0.540623413037013047E-05
 3830 0.912974438821380604E-05 0.541574390408921597E-05
 3840 0.890903523102545266E-05 0.542495227168637697E-05
 3850 0.911307444500092537E-05 0.543427872380426859E-05
 3860 0.931610904215828846E-05 0.544406878718702028E-05
 3870 0.956446745601276497E-05 0.545454073419541028E-05
 3880 0.929862437016297962E-05 0.546458724699333148E-05
 3890 0.939870702950702576E-05 0.547434607509732641E-05
 3900 0.101046449483666634E-04 0.548535004262232937E-05
 3910 0.103326390841477478E-04 0.549733115179002922E-05
 3920 0.103762450192162219E-04 0.550996350098718717E-05
 3930 0.993518911255627499E-05 0.552157243628714603E-05
 3940 0.999661751649185821E-05 0.553305389172851371E-05
 3950 0.101627226680923094E-04 0.554478649811945852E-05
 3960 0.102644276361139609E-04 0.555664343355019002E-05
 3970 0.102529578595252659E-04 0.556831055782537324E-05
 3980 0.101062931685740553E-04 0.557979156410390365E-05
 3990 0.102720563922193473E-04 0.559163289269733116E-05
 4000 0.102200050948237891E-04 0.560333336831632712E-05
 4010 0.103550286326580257E-04 0.561504824667386672E-05
 4020 0.103214308700801763E-04 0.562677744883419150E-05
 4030 0.103242227891691285E-04 0.563827341410149677E-05
 4040 0.102104793051309061E-04 0.564987026719824439E-05
 4050 0.102380421326742848E-04 0.566133008683443290E-05
 4060 0.100475151620086115E-04 0.567231088727525362E-05
 4070 0.992011255267043410E-05 0.568291354457141546E-05
 4080 0.101035634274377988E-04 0.569343760628053035E-05
 4090 0.101534771256932730E-04 0.570450052639759788E-05
 4100 0.100693217547711365E-04 0.571528201387608111E-05
 4110 0.101351211286951499E-04 0.572583711675661795E-05
 4120 0.100837001512135412E-04 0.573627331080250484E-05
 4130 0.106061745815905626E-04 0.574727055192492315E-05
 4140 0.106242287500039499E-04 0.575896963357287856E-05
 4150 0.109314882706535819E-04 0.577116658879915890E-05
 4160 0.108984604559794210E-04 0.578350745307611397E-05
 4170 0.109355494175556110E-04 0.579565762718282780E-05
 4180 0.110352288405048886E-04 0.580831409344866925E-05
 4190 0.112220958192887576E-04 0.582102440755220700E-05
 4200 0.111009251239537181E-04 0.583361821991115128E-05
 4210 0.112637168696764375E-04 0.584633978395755829E-05
 4220 0.113387491216987270E-04 0.585929087046431559E-05
 4230 0.113591398131738651E-04 0.587217907321779936E-05
 4240 0.111190959686357327E-04 0.588476743993596644E-05
 4250 0.110418230417356828E-04 0.589708514724820549E-05
 4260 0.109746802167205527E-04 0.590918868638705079E-05
 4270 0.103340420654186597E-04 0.592075370876995668E-05
 4280 0.105645424760788814E-04 0.593120661011547103E-05
 4290 0.104918804263116372E-04 0.594188516758354630E-05
 4300 0.104602871558749195E-04 0.595255899346912008E-05
 4310 0.105707468468708974E-04 0.596303394731243395E-05
 4320 0.105394811267534722E-04 0.597366498214331321E-05
 4330 0.106444434481270907E-04 0.598443265369924646E-05
 4340 0.104116913897163449E-04 0.599499656549666997E-05
 4350 0.103099546456317334E-04 0.600479457138658878E-05
 4360 0.102268190500524427E-04 0.601444491428753258E-05
 4370 0.993717135026079293E-05 0.602387079658740251E-05
 4380 0.991057288801026809E-05 0.603256830029634491E-05
 4390 0.101458018034379383E-04 0.604156816312525809E-05
 4400 0.103132642297146609E-04 0.605124735202902232E-05
 4410 0.106076095912545008E-04 0.606130929242347341E-05
 4420 0.110730248795273075E-04 0.607218505175177578E-05
 4430 0.110680309502145115E-04 0.608352920006725898E-05
 4440 0.106022650032068492E-04 0.609418384756225241E-05
 4450 0.112041306538843093E-04 0.610470028825624987E-05
 4460 0.110926866115404624E-04 0.611587632857446861E-05
 4470 0.111754693951152033E-04 0.612708623025993618E-05
 4480 0.117553798963410511E-04 0.613870574263398305E-05
 4490 0.115317608905093079E-04 0.615113288065847930E-05
 4500 0.116276541296564730E-04 0.616308417598380187E-05
 4510 0.111963291733659527E-04 0.617491977404163495E-05
 4520 0.111470514088207769E-04 0.618590451844936370E-05
 4530 0.113364900681503092E-04 0.619706187537752196E-05
 4540 0.111903386984116002E-04 0.620823308108345917E-05
 4550 0.114533428987198523E-04 0.621955145835829623E-05
 4560 0.115111988734897083E-04 0.623103574611269689E-05
 4570 0.114279265313439785E-04 0.624254098960784046E-05
 4580 0.117219093306223635E-04 0.625412630710096104E-05
 4590 0.117642492371123476E-04 0.626609453709352515E-05
 4600 0.119972822221364862E-04 0.627828693746680328E-05
 4610 0.121183926462339671E-04 0.629101643210103990E-05
 4620 0.122445950050810382E-04 0.630384611444562815E-05
 4630 0.122078994605357380E-04 0.631665152393558392E-05
 4640 0.120597131796387878E-04 0.632922956291176636E-05
 4650 0.122073677359572910E-04 0.634176936519586762E-05
 4660 0.121198905729168072E-04 0.635426458952351513E-05
 4670 0.123846209275756582E-04 0.636692606900434146E-05
 4680 0.125412781393836400E-04 0.638004550093050401E-05
 4690 0.130954809994941654E-04 0.639351041295573685E-05
 4700 0.130240966784942043E-04 0.640763526600696948E-05
 4710 0.129973615154830135E-04 0.642169541413002925E-05
 4720 0.125200761037744685E-04 0.643502864549077412E-05
 4730 0.122126672845813614E-04 0.644762603571924066E-05
 4740 0.128018248766405661E-04 0.646039549131897468E-05
 4750 0.128147223897328945E-04 0.647375684105286862E-05
 4760 0.127218794196177963E-04 0.648698752689159595E-05
 4770 0.129577133849096235E-04 0.650018646910634750E-05
 4780 0.126594730960624936E-04 0.651329200067998763E-05
 4790 0.128476347310378856E-04 0.652631442125175110E-05
 4800 0.129258266663532762E-04 0.653939278337955313E-05
 4810 0.129484678672058750E-04 0.655285254953380536E-05
 4820 0.132885613122642645E-04 0.656639715242595357E-05
 4830 0.133137973405151100E-04 0.658032933988165726E-05
 4840 0.133286170072806069E-04 0.659416055638679163E-05
 4850 0.133257708947828525E-04 0.660801509060178513E-05
 4860 0.130301613229545988E-04 0.662147496418822202E-05
 4870 0.127734976088808986E-04 0.663420416507073203E-05
 4880 0.136716816825120773E-04 0.664809000817503438E-05
 4890 0.136396936288374702E-04 0.666216541861707711E-05
 4900 0.136148498240783641E-04 0.667645254514018868E-05
 4910 0.139303536686990518E-04 0.669090232839894886E-05
 4920 0.139708370004477125E-04 0.670578581904476880E-05
 4930 0.139847502350718804E-04 0.672071612762857429E-05
 4940 0.140952601285988046E-04 0.673557628915219340E-05
 4950 0.142029342675084297E-04 0.675055876363364229E-05
 4960 0.140860007158130598E-04 0.676543033579235621E-05
 4970 0.140283920243112966E-04 0.678005889163279519E-05
 4980 0.139684714962718443E-04 0.679459739341367596E-05
 4990 0.137161951161997936E-04 0.680854100639613952E-05
 5000 0.139627824495995932E-04 0.682260182261765362E-05
