 
  **** **** ******  **  PROGRAM STARTED AT              Wed Oct 23 15:05:38 2002
 ***** ** ***  *** **   PROGRAM STARTED ON                                    ka
 **    ****   ******    PROGRAM STARTED BY                                gloria
 ***** **    ** ** **   PROGRAM PROCESS ID                                 26328
  **** **  *******  **  PROGRAM STARTED IN 
                                       /home/chem/gloria/CP2K/CP2K/tests/KG/Neon
 
 CP2K| Program compiled at                          Tue Oct 22 14:04:01 DFT 2002
 CP2K| Program compiled on                                                    ka
 CP2K| Program compiled for                                           AIX-POWER2
 CP2K| Program name                                                           KG
 CP2K| Input file name                                                 input_md2
 CP2K| Project name                                                           ne
 CP2K| Default FFT library                                                 FFTSG
 CP2K| Default basis set file                                          BASIS_SET
 CP2K| Default external potential file                                 POTENTIAL
 CP2K| Default library path                                                   ./
 CP2K| Global print level                                                      1
 CP2K| Total number of processors                                              1
 CP2K| This output from processor                                              0
 
 CONTROL| Run type                                                            MD
 CONTROL| Unit type                                                       ATOMIC
 CONTROL| Use of symmetry                                                     No
 CONTROL| Path Integrals                                                      No
 CONTROL| Set file name                                                   ne.set
 CONTROL| Data file name                                                  ne.dat
 CONTROL| Topology file name                                              ne.top
 CONTROL| Print level                                                          1


 DFT| Force calculation                                                       NO
 DFT| Cutoffs: density                                               0.10000E-09
 DFT|          gradient                                              0.10000E-07
 DFT| XC mesh (PW density)                                               default
 FUNCTIONAL| Exchange Functional                                          SLATER
                                 Dirac/Slater local exchange; parameter=  0.6667
 FUNCTIONAL| Correlation Functional                                           PZ
                      J. P. Perdew and Alex Zunger, Phys. Rev. B 23, 5048 (1981)
                           *** WARNING : THIS FUNCTIONAL IS NOT FULLY TESTED ***
 FUNCTIONAL| Kinetic Energy Functional                                       LLP
                         H. Lee, C. Lee, R.G. Parr, Phys. Rev. A, 44, 768 (1991)
                           *** WARNING : THIS FUNCTIONAL IS NOT FULLY TESTED ***

 KG| Method:                                                            KG_NOPOL
 KG| Number of grid levels:                                                    1
 KG| Density cutoff [a.u.]:                                                 24.0
 KG| Grid level progression factor:                                          2.0
 KG| Relative density cutoff [a.u.]:                                        25.0
 KG| Interaction thresholds: eps_pgf_orb:                                1.0E-07
 KG|                         eps_core_charge:                            1.0E-08
 KG|                         eps_rho_gspace:                             1.0E-08
 KG|                         eps_rho_rspace:                             1.0E-08
 KG|                         eps_gvg_rspace:                             1.0E-07

 MOLECULE| Number of molecule types                                            1
 MOLECULE| Molecule type Molecule name           Molecules           Nose option
 MOLECULE|      1                   NE               64                  MASSIVE

 CELL| Reference Cell 
 CELL| Periodic in X direction                                               YES
 CELL| Periodic in Y direction                                               YES
 CELL| Periodic in Z direction                                               YES
 CELL| Poisson Solver                                                   STANDARD
 CELL| Parameters                                    11.4900    0.0000    0.0000
 CELL|                                                0.0000   11.4900    0.0000
 CELL|                                                0.0000    0.0000   11.4900

 MOLECULE| Molecule name                                                      NE
 MOLECULE| Number of atoms                                                     1
 MOLECULE| Number of atom types                                                1
 MOLECULE|                             Atom                  Weight       Charge
 MOLECULE|                             NE                  20.17970      0.00000
 FORCE FIELD| Non-bonded interaction parameters
 FORCE FIELD| LJ (12-6)      NE     NE                    epsilon [K]    47.0000
 FORCE FIELD|                                               sigma [A]     2.7200
 FORCE FIELD|                                                rcut [A]     6.5000

 MD| Molecular Dynamics Protocol 
 MD| Ensemble Type                                                           NVE
 MD| Restart Type                                                         POSVEL
 MD| Number of Time Steps                                                   5000
 MD| Time Step [fs]                                                         1.00
 MD| Temperature [K]                                                       48.00
 MD| Verlet buffer skin [Angstrom]                                          1.00
 MD| Print MD information every                                       10 step(s)
 MD| File type     Print frequency[steps]                             File names
 MD| Coordinates           10                                             ne.crd
 MD| Velocities            10                                             ne.vel
 MD| Energies              10                                            ne.ener
 MD| PotentialEnergies     10                                             ne.pot
 MD| Temperature           10                                            ne.temp
 MD| Pressure Tensor       10                                           ne.ptens
 MD| Dump                  10                                            ne.dump
 
 ATOM| No input section &COORD found 
 ATOM| Try to read default file                                           ne.dat
 ATOM| Box parameters [Angstrom]
 ATOM|                                    21.71295        0.00000        0.00000
 ATOM|                                     0.00000       21.71295        0.00000
 ATOM|                                     0.00000        0.00000       21.71295
 ATOM| Number of atoms read                                                   64



 BASIS SET INFORMATION (Unnormalised Gaussian-type functions)

  1. Atomic kind: NE

   - GTO basis set information

     GTO basis set name: KG-PDM-BARKER

     Set   Shell     n   l            Exponent    Coefficient

       1       1     1   0            2.292000      -4.867000
                                      0.766000      -2.938000


 ATOMIC KIND INFORMATION

  1. Atomic kind: NE

     Number of atoms of this atomic kind in the cell:     64

   - Orbital basis set information

     Orbital basis set name: KG-PDM-BARKER

     Number of orbital shell sets:                 1
     Number of orbital shells:                     1
     Number of primitive Cartesian functions:      2
     Number of Cartesian basis functions:          1
     Number of spherical basis functions:          1

     Normalised Cartesian orbitals

     Set   Shell   Orbital            Exponent    Coefficient

       1       1    1s                2.292000      -3.032903
                                      0.766000      -0.353729


   - Potential information

     Potential name: EPC

     Description: effective point charge potential

     Atomic Effective Charge:    7.805000

     Gaussian exponent of the core charge distribution:     0.440000


 RADII OF THE ORBITAL BASIS IN BOHR

  Kind   Label       Radius

     1   NE         4.436802


 RADII OF THE SHELL SETS OF THE ORBITAL BASIS IN BOHR

  Kind   Label   Set       Radius

     1   NE        1      4.436802


 RADII OF THE PRIMITIVE GAUSSIAN FUNCTIONS OF THE ORBITAL BASIS IN BOHR

  Kind   Label   Set       Radius

     1   NE        1      2.741608
                          4.436802


 RADII OF THE CORE CHARGE DISTRIBUTIONS IN BOHR

  Kind   Label       Radius

     1   NE         6.311404
 
 ENERGY| Initialization proceeding
 

 ******************************** GO CP2K GO! **********************************
 INITIAL TOTAL POTENTIAL ENERGY[hartree=                           0.2854088E+03
 INITIAL BOND CORRECT ENERGY[hartree]  =                           0.0000000E+00
 INITIAL K+XC ENERGY[hartree]          =                           0.9365248E+03
 INITIAL HARTREE ENERGY[hartree]       =                           0.3799519E+03
 INITIAL CORE OVLP ENERGY[hartree]     =                           0.6528560E+00
 SELF-ENERGY[hartree]                  =                          -0.1031721E+04
 INITIAL KINETIC ENERGY[hartree]       =                           0.1341634E-01
 INITIAL TEMPERATURE[K]                =                           0.4483091E+02
 INITIAL VOLUME[bohr^3]                =                           0.1023662E+05
 INITIAL CELL LNTHS[bohr]   =      0.2171295E+02   0.2171295E+02   0.2171295E+02
 INITIAL CELL ANGLS[deg]    =      0.9000000E+02   0.9000000E+02   0.9000000E+02
 ******************************** GO CP2K GO! **********************************

 *******************************************************************************
 ENSEMBLE TYPE                =                                              NVE
 STEP NUMBER                  =                                               10
 CONSERVED QNTY               =                                    0.2854223E+03

                                                   INSTANTANEOUS        AVERAGES
 {E-E0}/E0                    =                    0.2421611E-06   0.1850830E-06
 TOTAL POTENTIAL ENERGY[hartre=                    0.2854046E+03   0.2854070E+03
 BOND CORRECT ENERGY[hartree] =                    0.0000000E+00   0.0000000E+00
 K+XC ENERGY[hartree]         =                    0.9365238E+03   0.9365244E+03
 CORE OVLP ENERGY[hartree]    =                    0.6408726E+00   0.6479804E+00
 HARTREE   ENERGY[hartree]    =                    0.3799607E+03   0.3799555E+03
 KINETIC ENERGY[hartree]      =                    0.1769780E-01   0.1530615E-01
 TEMPERATURE[K]               =                    0.5913747E+02   0.5114575E+02
 *******************************************************************************


 *******************************************************************************
 ENSEMBLE TYPE                =                                              NVE
 STEP NUMBER                  =                                               20
 CONSERVED QNTY               =                                    0.2854223E+03

                                                   INSTANTANEOUS        AVERAGES
 {E-E0}/E0                    =                    0.7268384E-07   0.1637145E-06
 TOTAL POTENTIAL ENERGY[hartre=                    0.2853971E+03   0.2854038E+03
 BOND CORRECT ENERGY[hartree] =                    0.0000000E+00   0.0000000E+00
 K+XC ENERGY[hartree]         =                    0.9365223E+03   0.9365237E+03
 CORE OVLP ENERGY[hartree]    =                    0.6156245E+00   0.6377204E+00
 HARTREE   ENERGY[hartree]    =                    0.3799800E+03   0.3799632E+03
 KINETIC ENERGY[hartree]      =                    0.2517785E-01   0.1851664E-01
 TEMPERATURE[K]               =                    0.8413216E+02   0.6187364E+02
 *******************************************************************************


 *******************************************************************************
 ENSEMBLE TYPE                =                                              NVE
 STEP NUMBER                  =                                               30
 CONSERVED QNTY               =                                    0.2854223E+03

                                                   INSTANTANEOUS        AVERAGES
 {E-E0}/E0                    =                    0.1859583E-06   0.1444657E-06
 TOTAL POTENTIAL ENERGY[hartre=                    0.2853900E+03   0.2854002E+03
 BOND CORRECT ENERGY[hartree] =                    0.0000000E+00   0.0000000E+00
 K+XC ENERGY[hartree]         =                    0.9365206E+03   0.9365229E+03
 CORE OVLP ENERGY[hartree]    =                    0.5899550E+00   0.6255439E+00
 HARTREE   ENERGY[hartree]    =                    0.3800002E+03   0.3799726E+03
 KINETIC ENERGY[hartree]      =                    0.3233273E-01   0.2208278E-01
 TEMPERATURE[K]               =                    0.1080403E+03   0.7378996E+02
 *******************************************************************************


 *******************************************************************************
 ENSEMBLE TYPE                =                                              NVE
 STEP NUMBER                  =                                               40
 CONSERVED QNTY               =                                    0.2854222E+03

                                                   INSTANTANEOUS        AVERAGES
 {E-E0}/E0                    =                    0.8811507E-07   0.1315202E-06
 TOTAL POTENTIAL ENERGY[hartre=                    0.2853846E+03   0.2853969E+03
 BOND CORRECT ENERGY[hartree] =                    0.0000000E+00   0.0000000E+00
 K+XC ENERGY[hartree]         =                    0.9365189E+03   0.9365221E+03
 CORE OVLP ENERGY[hartree]    =                    0.5702330E+00   0.6137812E+00
 HARTREE   ENERGY[hartree]    =                    0.3800162E+03   0.3799818E+03
 KINETIC ENERGY[hartree]      =                    0.3762167E-01   0.2541898E-01
 TEMPERATURE[K]               =                    0.1257134E+03   0.8493791E+02
 *******************************************************************************


 *******************************************************************************
 ENSEMBLE TYPE                =                                              NVE
 STEP NUMBER                  =                                               50
 CONSERVED QNTY               =                                    0.2854222E+03

                                                   INSTANTANEOUS        AVERAGES
 {E-E0}/E0                    =                    0.2689010E-07   0.1208939E-06
 TOTAL POTENTIAL ENERGY[hartre=                    0.2853820E+03   0.2853941E+03
 BOND CORRECT ENERGY[hartree] =                    0.0000000E+00   0.0000000E+00
 K+XC ENERGY[hartree]         =                    0.9365180E+03   0.9365213E+03
 CORE OVLP ENERGY[hartree]    =                    0.5584599E+00   0.6036422E+00
 HARTREE   ENERGY[hartree]    =                    0.3800264E+03   0.3799899E+03
 KINETIC ENERGY[hartree]      =                    0.4020472E-01   0.2819452E-01
 TEMPERATURE[K]               =                    0.1343447E+03   0.9421243E+02
 *******************************************************************************


 *******************************************************************************
 ENSEMBLE TYPE                =                                              NVE
 STEP NUMBER                  =                                               60
 CONSERVED QNTY               =                                    0.2854223E+03

                                                   INSTANTANEOUS        AVERAGES
 {E-E0}/E0                    =                    0.1441572E-06   0.1146768E-06
 TOTAL POTENTIAL ENERGY[hartre=                    0.2853822E+03   0.2853920E+03
 BOND CORRECT ENERGY[hartree] =                    0.0000000E+00   0.0000000E+00
 K+XC ENERGY[hartree]         =                    0.9365183E+03   0.9365208E+03
 CORE OVLP ENERGY[hartree]    =                    0.5541633E+00   0.5956274E+00
 HARTREE   ENERGY[hartree]    =                    0.3800306E+03   0.3799964E+03
 KINETIC ENERGY[hartree]      =                    0.4008214E-01   0.3021384E-01
 TEMPERATURE[K]               =                    0.1339351E+03   0.1009600E+03
 *******************************************************************************


 *******************************************************************************
 ENSEMBLE TYPE                =                                              NVE
 STEP NUMBER                  =                                               70
 CONSERVED QNTY               =                                    0.2854223E+03

                                                   INSTANTANEOUS        AVERAGES
 {E-E0}/E0                    =                    0.2468625E-06   0.1349949E-06
 TOTAL POTENTIAL ENERGY[hartre=                    0.2853834E+03   0.2853907E+03
 BOND CORRECT ENERGY[hartree] =                    0.0000000E+00   0.0000000E+00
 K+XC ENERGY[hartree]         =                    0.9365191E+03   0.9365205E+03
 CORE OVLP ENERGY[hartree]    =                    0.5550059E+00   0.5897279E+00
 HARTREE   ENERGY[hartree]    =                    0.3800301E+03   0.3800013E+03
 KINETIC ENERGY[hartree]      =                    0.3888735E-01   0.3153336E-01
 TEMPERATURE[K]               =                    0.1299427E+03   0.1053692E+03
 *******************************************************************************


 *******************************************************************************
 ENSEMBLE TYPE                =                                              NVE
 STEP NUMBER                  =                                               80
 CONSERVED QNTY               =                                    0.2854224E+03

                                                   INSTANTANEOUS        AVERAGES
 {E-E0}/E0                    =                    0.5662496E-06   0.1627685E-06
 TOTAL POTENTIAL ENERGY[hartre=                    0.2853840E+03   0.2853899E+03
 BOND CORRECT ENERGY[hartree] =                    0.0000000E+00   0.0000000E+00
 K+XC ENERGY[hartree]         =                    0.9365192E+03   0.9365203E+03
 CORE OVLP ENERGY[hartree]    =                    0.5577921E+00   0.5855747E+00
 HARTREE   ENERGY[hartree]    =                    0.3800277E+03   0.3800048E+03
 KINETIC ENERGY[hartree]      =                    0.3843292E-01   0.3240879E-01
 TEMPERATURE[K]               =                    0.1284242E+03   0.1082945E+03
 *******************************************************************************


 *******************************************************************************
 ENSEMBLE TYPE                =                                              NVE
 STEP NUMBER                  =                                               90
 CONSERVED QNTY               =                                    0.2854225E+03

                                                   INSTANTANEOUS        AVERAGES
 {E-E0}/E0                    =                    0.7860179E-06   0.2166155E-06
 TOTAL POTENTIAL ENERGY[hartre=                    0.2853839E+03   0.2853892E+03
 BOND CORRECT ENERGY[hartree] =                    0.0000000E+00   0.0000000E+00
 K+XC ENERGY[hartree]         =                    0.9365192E+03   0.9365202E+03
 CORE OVLP ENERGY[hartree]    =                    0.5600145E+00   0.5826385E+00
 HARTREE   ENERGY[hartree]    =                    0.3800255E+03   0.3800072E+03
 KINETIC ENERGY[hartree]      =                    0.3856042E-01   0.3308018E-01
 TEMPERATURE[K]               =                    0.1288502E+03   0.1105379E+03
 *******************************************************************************


 *******************************************************************************
 ENSEMBLE TYPE                =                                              NVE
 STEP NUMBER                  =                                              100
 CONSERVED QNTY               =                                    0.2854226E+03

                                                   INSTANTANEOUS        AVERAGES
 {E-E0}/E0                    =                    0.1123120E-05   0.2926343E-06
 TOTAL POTENTIAL ENERGY[hartre=                    0.2853832E+03   0.2853886E+03
 BOND CORRECT ENERGY[hartree] =                    0.0000000E+00   0.0000000E+00
 K+XC ENERGY[hartree]         =                    0.9365189E+03   0.9365201E+03
 CORE OVLP ENERGY[hartree]    =                    0.5601215E+00   0.5804016E+00
 HARTREE   ENERGY[hartree]    =                    0.3800250E+03   0.3800090E+03
 KINETIC ENERGY[hartree]      =                    0.3935294E-01   0.3366760E-01
 TEMPERATURE[K]               =                    0.1314985E+03   0.1125008E+03
 *******************************************************************************


 *******************************************************************************
 ENSEMBLE TYPE                =                                              NVE
 STEP NUMBER                  =                                              110
 CONSERVED QNTY               =                                    0.2854225E+03

                                                   INSTANTANEOUS        AVERAGES
 {E-E0}/E0                    =                    0.1033048E-05   0.3625990E-06
 TOTAL POTENTIAL ENERGY[hartre=                    0.2853830E+03   0.2853881E+03
 BOND CORRECT ENERGY[hartree] =                    0.0000000E+00   0.0000000E+00
 K+XC ENERGY[hartree]         =                    0.9365191E+03   0.9365200E+03
 CORE OVLP ENERGY[hartree]    =                    0.5585539E+00   0.5784863E+00
 HARTREE   ENERGY[hartree]    =                    0.3800262E+03   0.3800105E+03
 KINETIC ENERGY[hartree]      =                    0.3956379E-01   0.3420485E-01
 TEMPERATURE[K]               =                    0.1322030E+03   0.1142960E+03
 *******************************************************************************


 *******************************************************************************
 ENSEMBLE TYPE                =                                              NVE
 STEP NUMBER                  =                                              120
 CONSERVED QNTY               =                                    0.2854225E+03

                                                   INSTANTANEOUS        AVERAGES
 {E-E0}/E0                    =                    0.9985390E-06   0.4121279E-06
 TOTAL POTENTIAL ENERGY[hartre=                    0.2853836E+03   0.2853877E+03
 BOND CORRECT ENERGY[hartree] =                    0.0000000E+00   0.0000000E+00
 K+XC ENERGY[hartree]         =                    0.9365196E+03   0.9365199E+03
 CORE OVLP ENERGY[hartree]    =                    0.5566375E+00   0.5767379E+00
 HARTREE   ENERGY[hartree]    =                    0.3800282E+03   0.3800119E+03
 KINETIC ENERGY[hartree]      =                    0.3894559E-01   0.3462098E-01
 TEMPERATURE[K]               =                    0.1301373E+03   0.1156866E+03
 *******************************************************************************


 *******************************************************************************
 ENSEMBLE TYPE                =                                              NVE
 STEP NUMBER                  =                                              130
 CONSERVED QNTY               =                                    0.2854225E+03

                                                   INSTANTANEOUS        AVERAGES
 {E-E0}/E0                    =                    0.9589516E-06   0.4566695E-06
 TOTAL POTENTIAL ENERGY[hartre=                    0.2853837E+03   0.2853874E+03
 BOND CORRECT ENERGY[hartree] =                    0.0000000E+00   0.0000000E+00
 K+XC ENERGY[hartree]         =                    0.9365198E+03   0.9365199E+03
 CORE OVLP ENERGY[hartree]    =                    0.5546254E+00   0.5751074E+00
 HARTREE   ENERGY[hartree]    =                    0.3800301E+03   0.3800132E+03
 KINETIC ENERGY[hartree]      =                    0.3884118E-01   0.3494069E-01
 TEMPERATURE[K]               =                    0.1297884E+03   0.1167549E+03
 *******************************************************************************


 *******************************************************************************
 ENSEMBLE TYPE                =                                              NVE
 STEP NUMBER                  =                                              140
 CONSERVED QNTY               =                                    0.2854225E+03

                                                   INSTANTANEOUS        AVERAGES
 {E-E0}/E0                    =                    0.7696520E-06   0.4827722E-06
 TOTAL POTENTIAL ENERGY[hartre=                    0.2853826E+03   0.2853871E+03
 BOND CORRECT ENERGY[hartree] =                    0.0000000E+00   0.0000000E+00
 K+XC ENERGY[hartree]         =                    0.9365191E+03   0.9365199E+03
 CORE OVLP ENERGY[hartree]    =                    0.5525352E+00   0.5735620E+00
 HARTREE   ENERGY[hartree]    =                    0.3800317E+03   0.3800145E+03
 KINETIC ENERGY[hartree]      =                    0.3989126E-01   0.3525577E-01
 TEMPERATURE[K]               =                    0.1332973E+03   0.1178077E+03
 *******************************************************************************


 *******************************************************************************
 ENSEMBLE TYPE                =                                              NVE
 STEP NUMBER                  =                                              150
 CONSERVED QNTY               =                                    0.2854223E+03

                                                   INSTANTANEOUS        AVERAGES
 {E-E0}/E0                    =                    0.3859302E-06   0.4855293E-06
 TOTAL POTENTIAL ENERGY[hartre=                    0.2853816E+03   0.2853868E+03
 BOND CORRECT ENERGY[hartree] =                    0.0000000E+00   0.0000000E+00
 K+XC ENERGY[hartree]         =                    0.9365186E+03   0.9365198E+03
 CORE OVLP ENERGY[hartree]    =                    0.5504731E+00   0.5720859E+00
 HARTREE   ENERGY[hartree]    =                    0.3800334E+03   0.3800157E+03
 KINETIC ENERGY[hartree]      =                    0.4075480E-01   0.3560103E-01
 TEMPERATURE[K]               =                    0.1361828E+03   0.1189614E+03
 *******************************************************************************


 *******************************************************************************
 ENSEMBLE TYPE                =                                              NVE
 STEP NUMBER                  =                                              160
 CONSERVED QNTY               =                                    0.2854223E+03

                                                   INSTANTANEOUS        AVERAGES
 {E-E0}/E0                    =                    0.1450161E-06   0.4762503E-06
 TOTAL POTENTIAL ENERGY[hartre=                    0.2853815E+03   0.2853864E+03
 BOND CORRECT ENERGY[hartree] =                    0.0000000E+00   0.0000000E+00
 K+XC ENERGY[hartree]         =                    0.9365189E+03   0.9365197E+03
 CORE OVLP ENERGY[hartree]    =                    0.5473073E+00   0.5706374E+00
 HARTREE   ENERGY[hartree]    =                    0.3800361E+03   0.3800169E+03
 KINETIC ENERGY[hartree]      =                    0.4077014E-01   0.3592786E-01
 TEMPERATURE[K]               =                    0.1362340E+03   0.1200535E+03
 *******************************************************************************


 *******************************************************************************
 ENSEMBLE TYPE                =                                              NVE
 STEP NUMBER                  =                                              170
 CONSERVED QNTY               =                                    0.2854223E+03

                                                   INSTANTANEOUS        AVERAGES
 {E-E0}/E0                    =                    0.1085826E-06   0.4540756E-06
 TOTAL POTENTIAL ENERGY[hartre=                    0.2853812E+03   0.2853861E+03
 BOND CORRECT ENERGY[hartree] =                    0.0000000E+00   0.0000000E+00
 K+XC ENERGY[hartree]         =                    0.9365197E+03   0.9365197E+03
 CORE OVLP ENERGY[hartree]    =                    0.5417061E+00   0.5690940E+00
 HARTREE   ENERGY[hartree]    =                    0.3800406E+03   0.3800181E+03
 KINETIC ENERGY[hartree]      =                    0.4106834E-01   0.3621737E-01
 TEMPERATURE[K]               =                    0.1372305E+03   0.1210209E+03
 *******************************************************************************


 *******************************************************************************
 ENSEMBLE TYPE                =                                              NVE
 STEP NUMBER                  =                                              180
 CONSERVED QNTY               =                                    0.2854223E+03

                                                   INSTANTANEOUS        AVERAGES
 {E-E0}/E0                    =                    0.2458212E-06   0.4337638E-06
 TOTAL POTENTIAL ENERGY[hartre=                    0.2853805E+03   0.2853858E+03
 BOND CORRECT ENERGY[hartree] =                    0.0000000E+00   0.0000000E+00
 K+XC ENERGY[hartree]         =                    0.9365202E+03   0.9365197E+03
 CORE OVLP ENERGY[hartree]    =                    0.5360159E+00   0.5673886E+00
 HARTREE   ENERGY[hartree]    =                    0.3800452E+03   0.3800195E+03
 KINETIC ENERGY[hartree]      =                    0.4177637E-01   0.3650849E-01
 TEMPERATURE[K]               =                    0.1395964E+03   0.1219937E+03
 *******************************************************************************


 *******************************************************************************
 ENSEMBLE TYPE                =                                              NVE
 STEP NUMBER                  =                                              190
 CONSERVED QNTY               =                                    0.2854224E+03

                                                   INSTANTANEOUS        AVERAGES
 {E-E0}/E0                    =                    0.4818017E-06   0.4228449E-06
 TOTAL POTENTIAL ENERGY[hartre=                    0.2853800E+03   0.2853855E+03
 BOND CORRECT ENERGY[hartree] =                    0.0000000E+00   0.0000000E+00
 K+XC ENERGY[hartree]         =                    0.9365201E+03   0.9365198E+03
 CORE OVLP ENERGY[hartree]    =                    0.5343493E+00   0.5656662E+00
 HARTREE   ENERGY[hartree]    =                    0.3800464E+03   0.3800209E+03
 KINETIC ENERGY[hartree]      =                    0.4241167E-01   0.3680083E-01
 TEMPERATURE[K]               =                    0.1417192E+03   0.1229705E+03
 *******************************************************************************


 *******************************************************************************
 ENSEMBLE TYPE                =                                              NVE
 STEP NUMBER                  =                                              200
 CONSERVED QNTY               =                                    0.2854224E+03

                                                   INSTANTANEOUS        AVERAGES
 {E-E0}/E0                    =                    0.4819851E-06   0.4229719E-06
 TOTAL POTENTIAL ENERGY[hartre=                    0.2853800E+03   0.2853853E+03
 BOND CORRECT ENERGY[hartree] =                    0.0000000E+00   0.0000000E+00
 K+XC ENERGY[hartree]         =                    0.9365196E+03   0.9365198E+03
 CORE OVLP ENERGY[hartree]    =                    0.5375258E+00   0.5641711E+00
 HARTREE   ENERGY[hartree]    =                    0.3800437E+03   0.3800221E+03
 KINETIC ENERGY[hartree]      =                    0.4239346E-01   0.3708537E-01
 TEMPERATURE[K]               =                    0.1416584E+03   0.1239213E+03
 *******************************************************************************


 *******************************************************************************
 ENSEMBLE TYPE                =                                              NVE
 STEP NUMBER                  =                                              210
 CONSERVED QNTY               =                                    0.2854224E+03

                                                   INSTANTANEOUS        AVERAGES
 {E-E0}/E0                    =                    0.5992494E-06   0.4308264E-06
 TOTAL POTENTIAL ENERGY[hartre=                    0.2853810E+03   0.2853850E+03
 BOND CORRECT ENERGY[hartree] =                    0.0000000E+00   0.0000000E+00
 K+XC ENERGY[hartree]         =                    0.9365192E+03   0.9365197E+03
 CORE OVLP ENERGY[hartree]    =                    0.5430960E+00   0.5630455E+00
 HARTREE   ENERGY[hartree]    =                    0.3800395E+03   0.3800231E+03
 KINETIC ENERGY[hartree]      =                    0.4140780E-01   0.3731690E-01
 TEMPERATURE[K]               =                    0.1383648E+03   0.1246950E+03
 *******************************************************************************


 *******************************************************************************
 ENSEMBLE TYPE                =                                              NVE
 STEP NUMBER                  =                                              220
 CONSERVED QNTY               =                                    0.2854225E+03

                                                   INSTANTANEOUS        AVERAGES
 {E-E0}/E0                    =                    0.8951988E-06   0.4445767E-06
 TOTAL POTENTIAL ENERGY[hartre=                    0.2853824E+03   0.2853849E+03
 BOND CORRECT ENERGY[hartree] =                    0.0000000E+00   0.0000000E+00
 K+XC ENERGY[hartree]         =                    0.9365192E+03   0.9365197E+03
 CORE OVLP ENERGY[hartree]    =                    0.5478638E+00   0.5622651E+00
 HARTREE   ENERGY[hartree]    =                    0.3800361E+03   0.3800237E+03
 KINETIC ENERGY[hartree]      =                    0.4011221E-01   0.3746715E-01
 TEMPERATURE[K]               =                    0.1340356E+03   0.1251971E+03
 *******************************************************************************


 *******************************************************************************
 ENSEMBLE TYPE                =                                              NVE
 STEP NUMBER                  =                                              230
 CONSERVED QNTY               =                                    0.2854225E+03

                                                   INSTANTANEOUS        AVERAGES
 {E-E0}/E0                    =                    0.9820038E-06   0.4669290E-06
 TOTAL POTENTIAL ENERGY[hartre=                    0.2853826E+03   0.2853848E+03
 BOND CORRECT ENERGY[hartree] =                    0.0000000E+00   0.0000000E+00
 K+XC ENERGY[hartree]         =                    0.9365188E+03   0.9365197E+03
 CORE OVLP ENERGY[hartree]    =                    0.5507592E+00   0.5617143E+00
 HARTREE   ENERGY[hartree]    =                    0.3800339E+03   0.3800242E+03
 KINETIC ENERGY[hartree]      =                    0.3993552E-01   0.3757464E-01
 TEMPERATURE[K]               =                    0.1334451E+03   0.1255562E+03
 *******************************************************************************


 *******************************************************************************
 ENSEMBLE TYPE                =                                              NVE
 STEP NUMBER                  =                                              240
 CONSERVED QNTY               =                                    0.2854229E+03

                                                   INSTANTANEOUS        AVERAGES
 {E-E0}/E0                    =                    0.2172940E-05   0.5057824E-06
 TOTAL POTENTIAL ENERGY[hartre=                    0.2853820E+03   0.2853847E+03
 BOND CORRECT ENERGY[hartree] =                    0.0000000E+00   0.0000000E+00
 K+XC ENERGY[hartree]         =                    0.9365180E+03   0.9365196E+03
 CORE OVLP ENERGY[hartree]    =                    0.5521662E+00   0.5612953E+00
 HARTREE   ENERGY[hartree]    =                    0.3800326E+03   0.3800246E+03
 KINETIC ENERGY[hartree]      =                    0.4081797E-01   0.3769001E-01
 TEMPERATURE[K]               =                    0.1363939E+03   0.1259418E+03
 *******************************************************************************


 *******************************************************************************
 ENSEMBLE TYPE                =                                              NVE
 STEP NUMBER                  =                                              250
 CONSERVED QNTY               =                                    0.2854228E+03

                                                   INSTANTANEOUS        AVERAGES
 {E-E0}/E0                    =                    0.1999415E-05   0.5734725E-06
 TOTAL POTENTIAL ENERGY[hartre=                    0.2853823E+03   0.2853846E+03
 BOND CORRECT ENERGY[hartree] =                    0.0000000E+00   0.0000000E+00
 K+XC ENERGY[hartree]         =                    0.9365182E+03   0.9365196E+03
 CORE OVLP ENERGY[hartree]    =                    0.5515376E+00   0.5609257E+00
 HARTREE   ENERGY[hartree]    =                    0.3800334E+03   0.3800249E+03
 KINETIC ENERGY[hartree]      =                    0.4052129E-01   0.3781285E-01
 TEMPERATURE[K]               =                    0.1354025E+03   0.1263522E+03
 *******************************************************************************


 *******************************************************************************
 ENSEMBLE TYPE                =                                              NVE
 STEP NUMBER                  =                                              260
 CONSERVED QNTY               =                                    0.2854227E+03

                                                   INSTANTANEOUS        AVERAGES
 {E-E0}/E0                    =                    0.1622432E-05   0.6247420E-06
 TOTAL POTENTIAL ENERGY[hartre=                    0.2853826E+03   0.2853845E+03
 BOND CORRECT ENERGY[hartree] =                    0.0000000E+00   0.0000000E+00
 K+XC ENERGY[hartree]         =                    0.9365189E+03   0.9365195E+03
 CORE OVLP ENERGY[hartree]    =                    0.5471109E+00   0.5604843E+00
 HARTREE   ENERGY[hartree]    =                    0.3800374E+03   0.3800253E+03
 KINETIC ENERGY[hartree]      =                    0.4008420E-01   0.3790700E-01
 TEMPERATURE[K]               =                    0.1339420E+03   0.1266668E+03
 *******************************************************************************


 *******************************************************************************
 ENSEMBLE TYPE                =                                              NVE
 STEP NUMBER                  =                                              270
 CONSERVED QNTY               =                                    0.2854227E+03

                                                   INSTANTANEOUS        AVERAGES
 {E-E0}/E0                    =                    0.1499092E-05   0.6621331E-06
 TOTAL POTENTIAL ENERGY[hartre=                    0.2853811E+03   0.2853844E+03
 BOND CORRECT ENERGY[hartree] =                    0.0000000E+00   0.0000000E+00
 K+XC ENERGY[hartree]         =                    0.9365191E+03   0.9365195E+03
 CORE OVLP ENERGY[hartree]    =                    0.5395121E+00   0.5598392E+00
 HARTREE   ENERGY[hartree]    =                    0.3800434E+03   0.3800259E+03
 KINETIC ENERGY[hartree]      =                    0.4151551E-01   0.3801086E-01
 TEMPERATURE[K]               =                    0.1387247E+03   0.1270139E+03
 *******************************************************************************


 *******************************************************************************
 ENSEMBLE TYPE                =                                              NVE
 STEP NUMBER                  =                                              280
 CONSERVED QNTY               =                                    0.2854226E+03

                                                   INSTANTANEOUS        AVERAGES
 {E-E0}/E0                    =                    0.1405821E-05   0.6889369E-06
 TOTAL POTENTIAL ENERGY[hartre=                    0.2853789E+03   0.2853842E+03
 BOND CORRECT ENERGY[hartree] =                    0.0000000E+00   0.0000000E+00
 K+XC ENERGY[hartree]         =                    0.9365188E+03   0.9365195E+03
 CORE OVLP ENERGY[hartree]    =                    0.5325669E+00   0.5589683E+00
 HARTREE   ENERGY[hartree]    =                    0.3800483E+03   0.3800266E+03
 KINETIC ENERGY[hartree]      =                    0.4376345E-01   0.3818203E-01
 TEMPERATURE[K]               =                    0.1462362E+03   0.1275858E+03
 *******************************************************************************


 *******************************************************************************
 ENSEMBLE TYPE                =                                              NVE
 STEP NUMBER                  =                                              290
 CONSERVED QNTY               =                                    0.2854226E+03

                                                   INSTANTANEOUS        AVERAGES
 {E-E0}/E0                    =                    0.1445792E-05   0.7137425E-06
 TOTAL POTENTIAL ENERGY[hartre=                    0.2853788E+03   0.2853841E+03
 BOND CORRECT ENERGY[hartree] =                    0.0000000E+00   0.0000000E+00
 K+XC ENERGY[hartree]         =                    0.9365192E+03   0.9365195E+03
 CORE OVLP ENERGY[hartree]    =                    0.5295272E+00   0.5579879E+00
 HARTREE   ENERGY[hartree]    =                    0.3800509E+03   0.3800274E+03
 KINETIC ENERGY[hartree]      =                    0.4380780E-01   0.3838263E-01
 TEMPERATURE[K]               =                    0.1463844E+03   0.1282562E+03
 *******************************************************************************


 *******************************************************************************
 ENSEMBLE TYPE                =                                              NVE
 STEP NUMBER                  =                                              300
 CONSERVED QNTY               =                                    0.2854227E+03

                                                   INSTANTANEOUS        AVERAGES
 {E-E0}/E0                    =                    0.1595879E-05   0.7361387E-06
 TOTAL POTENTIAL ENERGY[hartre=                    0.2853797E+03   0.2853839E+03
 BOND CORRECT ENERGY[hartree] =                    0.0000000E+00   0.0000000E+00
 K+XC ENERGY[hartree]         =                    0.9365196E+03   0.9365195E+03
 CORE OVLP ENERGY[hartree]    =                    0.5295785E+00   0.5570362E+00
 HARTREE   ENERGY[hartree]    =                    0.3800514E+03   0.3800282E+03
 KINETIC ENERGY[hartree]      =                    0.4298280E-01   0.3854457E-01
 TEMPERATURE[K]               =                    0.1436277E+03   0.1287973E+03
 *******************************************************************************


 *******************************************************************************
 ENSEMBLE TYPE                =                                              NVE
 STEP NUMBER                  =                                              310
 CONSERVED QNTY               =                                    0.2854228E+03

                                                   INSTANTANEOUS        AVERAGES
 {E-E0}/E0                    =                    0.2007525E-05   0.7714298E-06
 TOTAL POTENTIAL ENERGY[hartre=                    0.2853792E+03   0.2853838E+03
 BOND CORRECT ENERGY[hartree] =                    0.0000000E+00   0.0000000E+00
 K+XC ENERGY[hartree]         =                    0.9365190E+03   0.9365195E+03
 CORE OVLP ENERGY[hartree]    =                    0.5295937E+00   0.5561538E+00
 HARTREE   ENERGY[hartree]    =                    0.3800514E+03   0.3800290E+03
 KINETIC ENERGY[hartree]      =                    0.4363292E-01   0.3869687E-01
 TEMPERATURE[K]               =                    0.1458001E+03   0.1293062E+03
 *******************************************************************************


 *******************************************************************************
 ENSEMBLE TYPE                =                                              NVE
 STEP NUMBER                  =                                              320
 CONSERVED QNTY               =                                    0.2854228E+03

                                                   INSTANTANEOUS        AVERAGES
 {E-E0}/E0                    =                    0.1986247E-05   0.8097666E-06
 TOTAL POTENTIAL ENERGY[hartre=                    0.2853785E+03   0.2853836E+03
 BOND CORRECT ENERGY[hartree] =                    0.0000000E+00   0.0000000E+00
 K+XC ENERGY[hartree]         =                    0.9365184E+03   0.9365194E+03
 CORE OVLP ENERGY[hartree]    =                    0.5282883E+00   0.5553045E+00
 HARTREE   ENERGY[hartree]    =                    0.3800527E+03   0.3800297E+03
 KINETIC ENERGY[hartree]      =                    0.4426949E-01   0.3886433E-01
 TEMPERATURE[K]               =                    0.1479272E+03   0.1298658E+03
 *******************************************************************************


 *******************************************************************************
 ENSEMBLE TYPE                =                                              NVE
 STEP NUMBER                  =                                              330
 CONSERVED QNTY               =                                    0.2854228E+03

                                                   INSTANTANEOUS        AVERAGES
 {E-E0}/E0                    =                    0.1960356E-05   0.8457558E-06
 TOTAL POTENTIAL ENERGY[hartre=                    0.2853782E+03   0.2853834E+03
 BOND CORRECT ENERGY[hartree] =                    0.0000000E+00   0.0000000E+00
 K+XC ENERGY[hartree]         =                    0.9365182E+03   0.9365194E+03
 CORE OVLP ENERGY[hartree]    =                    0.5259989E+00   0.5544500E+00
 HARTREE   ENERGY[hartree]    =                    0.3800547E+03   0.3800304E+03
 KINETIC ENERGY[hartree]      =                    0.4463543E-01   0.3903314E-01
 TEMPERATURE[K]               =                    0.1491500E+03   0.1304299E+03
 *******************************************************************************


 *******************************************************************************
 ENSEMBLE TYPE                =                                              NVE
 STEP NUMBER                  =                                              340
 CONSERVED QNTY               =                                    0.2854228E+03

                                                   INSTANTANEOUS        AVERAGES
 {E-E0}/E0                    =                    0.1926398E-05   0.8781497E-06
 TOTAL POTENTIAL ENERGY[hartre=                    0.2853776E+03   0.2853833E+03
 BOND CORRECT ENERGY[hartree] =                    0.0000000E+00   0.0000000E+00
 K+XC ENERGY[hartree]         =                    0.9365184E+03   0.9365194E+03
 CORE OVLP ENERGY[hartree]    =                    0.5226564E+00   0.5535612E+00
 HARTREE   ENERGY[hartree]    =                    0.3800574E+03   0.3800312E+03
 KINETIC ENERGY[hartree]      =                    0.4517949E-01   0.3920752E-01
 TEMPERATURE[K]               =                    0.1509680E+03   0.1310126E+03
 *******************************************************************************


 *******************************************************************************
 ENSEMBLE TYPE                =                                              NVE
 STEP NUMBER                  =                                              350
 CONSERVED QNTY               =                                    0.2854228E+03

                                                   INSTANTANEOUS        AVERAGES
 {E-E0}/E0                    =                    0.2019084E-05   0.9101594E-06
 TOTAL POTENTIAL ENERGY[hartre=                    0.2853769E+03   0.2853831E+03
 BOND CORRECT ENERGY[hartree] =                    0.0000000E+00   0.0000000E+00
 K+XC ENERGY[hartree]         =                    0.9365184E+03   0.9365193E+03
 CORE OVLP ENERGY[hartree]    =                    0.5193358E+00   0.5526238E+00
 HARTREE   ENERGY[hartree]    =                    0.3800600E+03   0.3800320E+03
 KINETIC ENERGY[hartree]      =                    0.4588395E-01   0.3938822E-01
 TEMPERATURE[K]               =                    0.1533219E+03   0.1316163E+03
 *******************************************************************************


 *******************************************************************************
 ENSEMBLE TYPE                =                                              NVE
 STEP NUMBER                  =                                              360
 CONSERVED QNTY               =                                    0.2854228E+03

                                                   INSTANTANEOUS        AVERAGES
 {E-E0}/E0                    =                    0.2062114E-05   0.9421042E-06
 TOTAL POTENTIAL ENERGY[hartre=                    0.2853763E+03   0.2853829E+03
 BOND CORRECT ENERGY[hartree] =                    0.0000000E+00   0.0000000E+00
 K+XC ENERGY[hartree]         =                    0.9365184E+03   0.9365193E+03
 CORE OVLP ENERGY[hartree]    =                    0.5174577E+00   0.5516663E+00
 HARTREE   ENERGY[hartree]    =                    0.3800613E+03   0.3800328E+03
 KINETIC ENERGY[hartree]      =                    0.4649787E-01   0.3957898E-01
 TEMPERATURE[K]               =                    0.1553733E+03   0.1322538E+03
 *******************************************************************************


 *******************************************************************************
 ENSEMBLE TYPE                =                                              NVE
 STEP NUMBER                  =                                              370
 CONSERVED QNTY               =                                    0.2854229E+03

                                                   INSTANTANEOUS        AVERAGES
 {E-E0}/E0                    =                    0.2359264E-05   0.9767589E-06
 TOTAL POTENTIAL ENERGY[hartre=                    0.2853760E+03   0.2853827E+03
 BOND CORRECT ENERGY[hartree] =                    0.0000000E+00   0.0000000E+00
 K+XC ENERGY[hartree]         =                    0.9365183E+03   0.9365193E+03
 CORE OVLP ENERGY[hartree]    =                    0.5174457E+00   0.5507372E+00
 HARTREE   ENERGY[hartree]    =                    0.3800611E+03   0.3800335E+03
 KINETIC ENERGY[hartree]      =                    0.4690291E-01   0.3977158E-01
 TEMPERATURE[K]               =                    0.1567268E+03   0.1328973E+03
 *******************************************************************************


 *******************************************************************************
 ENSEMBLE TYPE                =                                              NVE
 STEP NUMBER                  =                                              380
 CONSERVED QNTY               =                                    0.2854230E+03

                                                   INSTANTANEOUS        AVERAGES
 {E-E0}/E0                    =                    0.2616871E-05   0.1015963E-05
 TOTAL POTENTIAL ENERGY[hartre=                    0.2853759E+03   0.2853826E+03
 BOND CORRECT ENERGY[hartree] =                    0.0000000E+00   0.0000000E+00
 K+XC ENERGY[hartree]         =                    0.9365179E+03   0.9365193E+03
 CORE OVLP ENERGY[hartree]    =                    0.5198613E+00   0.5498898E+00
 HARTREE   ENERGY[hartree]    =                    0.3800589E+03   0.3800342E+03
 KINETIC ENERGY[hartree]      =                    0.4712063E-01   0.3996371E-01
 TEMPERATURE[K]               =                    0.1574543E+03   0.1335394E+03
 *******************************************************************************


 *******************************************************************************
 ENSEMBLE TYPE                =                                              NVE
 STEP NUMBER                  =                                              390
 CONSERVED QNTY               =                                    0.2854231E+03

                                                   INSTANTANEOUS        AVERAGES
 {E-E0}/E0                    =                    0.2944210E-05   0.1063358E-05
 TOTAL POTENTIAL ENERGY[hartre=                    0.2853772E+03   0.2853824E+03
 BOND CORRECT ENERGY[hartree] =                    0.0000000E+00   0.0000000E+00
 K+XC ENERGY[hartree]         =                    0.9365179E+03   0.9365192E+03
 CORE OVLP ENERGY[hartree]    =                    0.5251319E+00   0.5491887E+00
 HARTREE   ENERGY[hartree]    =                    0.3800550E+03   0.3800348E+03
 KINETIC ENERGY[hartree]      =                    0.4585809E-01   0.4013415E-01
 TEMPERATURE[K]               =                    0.1532355E+03   0.1341089E+03
 *******************************************************************************


 *******************************************************************************
 ENSEMBLE TYPE                =                                              NVE
 STEP NUMBER                  =                                              400
 CONSERVED QNTY               =                                    0.2854231E+03

                                                   INSTANTANEOUS        AVERAGES
 {E-E0}/E0                    =                    0.2908773E-05   0.1109063E-05
 TOTAL POTENTIAL ENERGY[hartre=                    0.2853798E+03   0.2853823E+03
 BOND CORRECT ENERGY[hartree] =                    0.0000000E+00   0.0000000E+00
 K+XC ENERGY[hartree]         =                    0.9365186E+03   0.9365192E+03
 CORE OVLP ENERGY[hartree]    =                    0.5320942E+00   0.5486816E+00
 HARTREE   ENERGY[hartree]    =                    0.3800499E+03   0.3800352E+03
 KINETIC ENERGY[hartree]      =                    0.4324118E-01   0.4024104E-01
 TEMPERATURE[K]               =                    0.1444911E+03   0.1344661E+03
 *******************************************************************************


 *******************************************************************************
 ENSEMBLE TYPE                =                                              NVE
 STEP NUMBER                  =                                              410
 CONSERVED QNTY               =                                    0.2854230E+03

                                                   INSTANTANEOUS        AVERAGES
 {E-E0}/E0                    =                    0.2797577E-05   0.1150132E-05
 TOTAL POTENTIAL ENERGY[hartre=                    0.2853817E+03   0.2853823E+03
 BOND CORRECT ENERGY[hartree] =                    0.0000000E+00   0.0000000E+00
 K+XC ENERGY[hartree]         =                    0.9365192E+03   0.9365192E+03
 CORE OVLP ENERGY[hartree]    =                    0.5388683E+00   0.5483698E+00
 HARTREE   ENERGY[hartree]    =                    0.3800445E+03   0.3800355E+03
 KINETIC ENERGY[hartree]      =                    0.4132907E-01   0.4028478E-01
 TEMPERATURE[K]               =                    0.1381017E+03   0.1346122E+03
 *******************************************************************************


 *******************************************************************************
 ENSEMBLE TYPE                =                                              NVE
 STEP NUMBER                  =                                              420
 CONSERVED QNTY               =                                    0.2854231E+03

                                                   INSTANTANEOUS        AVERAGES
 {E-E0}/E0                    =                    0.3124037E-05   0.1193105E-05
 TOTAL POTENTIAL ENERGY[hartre=                    0.2853822E+03   0.2853823E+03
 BOND CORRECT ENERGY[hartree] =                    0.0000000E+00   0.0000000E+00
 K+XC ENERGY[hartree]         =                    0.9365190E+03   0.9365192E+03
 CORE OVLP ENERGY[hartree]    =                    0.5443448E+00   0.5482183E+00
 HARTREE   ENERGY[hartree]    =                    0.3800397E+03   0.3800357E+03
 KINETIC ENERGY[hartree]      =                    0.4092246E-01   0.4030272E-01
 TEMPERATURE[K]               =                    0.1367430E+03   0.1346722E+03
 *******************************************************************************


 *******************************************************************************
 ENSEMBLE TYPE                =                                              NVE
 STEP NUMBER                  =                                              430
 CONSERVED QNTY               =                                    0.2854232E+03

                                                   INSTANTANEOUS        AVERAGES
 {E-E0}/E0                    =                    0.3532481E-05   0.1243937E-05
 TOTAL POTENTIAL ENERGY[hartre=                    0.2853827E+03   0.2853823E+03
 BOND CORRECT ENERGY[hartree] =                    0.0000000E+00   0.0000000E+00
 K+XC ENERGY[hartree]         =                    0.9365192E+03   0.9365192E+03
 CORE OVLP ENERGY[hartree]    =                    0.5482811E+00   0.5481814E+00
 HARTREE   ENERGY[hartree]    =                    0.3800361E+03   0.3800357E+03
 KINETIC ENERGY[hartree]      =                    0.4051075E-01   0.4031270E-01
 TEMPERATURE[K]               =                    0.1353673E+03   0.1347055E+03
 *******************************************************************************


 *******************************************************************************
 ENSEMBLE TYPE                =                                              NVE
 STEP NUMBER                  =                                              440
 CONSERVED QNTY               =                                    0.2854233E+03

                                                   INSTANTANEOUS        AVERAGES
 {E-E0}/E0                    =                    0.3635815E-05   0.1297987E-05
 TOTAL POTENTIAL ENERGY[hartre=                    0.2853835E+03   0.2853823E+03
 BOND CORRECT ENERGY[hartree] =                    0.0000000E+00   0.0000000E+00
 K+XC ENERGY[hartree]         =                    0.9365198E+03   0.9365192E+03
 CORE OVLP ENERGY[hartree]    =                    0.5509018E+00   0.5482183E+00
 HARTREE   ENERGY[hartree]    =                    0.3800335E+03   0.3800357E+03
 KINETIC ENERGY[hartree]      =                    0.3980706E-01   0.4030932E-01
 TEMPERATURE[K]               =                    0.1330159E+03   0.1346942E+03
 *******************************************************************************


 *******************************************************************************
 ENSEMBLE TYPE                =                                              NVE
 STEP NUMBER                  =                                              450
 CONSERVED QNTY               =                                    0.2854233E+03

                                                   INSTANTANEOUS        AVERAGES
 {E-E0}/E0                    =                    0.3632970E-05   0.1350423E-05
 TOTAL POTENTIAL ENERGY[hartre=                    0.2853850E+03   0.2853823E+03
 BOND CORRECT ENERGY[hartree] =                    0.0000000E+00   0.0000000E+00
 K+XC ENERGY[hartree]         =                    0.9365211E+03   0.9365192E+03
 CORE OVLP ENERGY[hartree]    =                    0.5528451E+00   0.5483027E+00
 HARTREE   ENERGY[hartree]    =                    0.3800319E+03   0.3800356E+03
 KINETIC ENERGY[hartree]      =                    0.3823887E-01   0.4027996E-01
 TEMPERATURE[K]               =                    0.1277758E+03   0.1345961E+03
 *******************************************************************************


 *******************************************************************************
 ENSEMBLE TYPE                =                                              NVE
 STEP NUMBER                  =                                              460
 CONSERVED QNTY               =                                    0.2854233E+03

                                                   INSTANTANEOUS        AVERAGES
 {E-E0}/E0                    =                    0.3607753E-05   0.1399832E-05
 TOTAL POTENTIAL ENERGY[hartre=                    0.2853859E+03   0.2853824E+03
 BOND CORRECT ENERGY[hartree] =                    0.0000000E+00   0.0000000E+00
 K+XC ENERGY[hartree]         =                    0.9365216E+03   0.9365193E+03
 CORE OVLP ENERGY[hartree]    =                    0.5534440E+00   0.5484128E+00
 HARTREE   ENERGY[hartree]    =                    0.3800317E+03   0.3800355E+03
 KINETIC ENERGY[hartree]      =                    0.3733751E-01   0.4022309E-01
 TEMPERATURE[K]               =                    0.1247639E+03   0.1344061E+03
 *******************************************************************************


 *******************************************************************************
 ENSEMBLE TYPE                =                                              NVE
 STEP NUMBER                  =                                              470
 CONSERVED QNTY               =                                    0.2854232E+03

                                                   INSTANTANEOUS        AVERAGES
 {E-E0}/E0                    =                    0.3380579E-05   0.1445313E-05
 TOTAL POTENTIAL ENERGY[hartre=                    0.2853852E+03   0.2853825E+03
 BOND CORRECT ENERGY[hartree] =                    0.0000000E+00   0.0000000E+00
 K+XC ENERGY[hartree]         =                    0.9365212E+03   0.9365193E+03
 CORE OVLP ENERGY[hartree]    =                    0.5511023E+00   0.5484981E+00
 HARTREE   ENERGY[hartree]    =                    0.3800337E+03   0.3800355E+03
 KINETIC ENERGY[hartree]      =                    0.3798448E-01   0.4016589E-01
 TEMPERATURE[K]               =                    0.1269257E+03   0.1342149E+03
 *******************************************************************************


 *******************************************************************************
 ENSEMBLE TYPE                =                                              NVE
 STEP NUMBER                  =                                              480
 CONSERVED QNTY               =                                    0.2854232E+03

                                                   INSTANTANEOUS        AVERAGES
 {E-E0}/E0                    =                    0.3413548E-05   0.1484875E-05
 TOTAL POTENTIAL ENERGY[hartre=                    0.2853828E+03   0.2853825E+03
 BOND CORRECT ENERGY[hartree] =                    0.0000000E+00   0.0000000E+00
 K+XC ENERGY[hartree]         =                    0.9365201E+03   0.9365193E+03
 CORE OVLP ENERGY[hartree]    =                    0.5463715E+00   0.5485000E+00
 HARTREE   ENERGY[hartree]    =                    0.3800372E+03   0.3800355E+03
 KINETIC ENERGY[hartree]      =                    0.4037019E-01   0.4014653E-01
 TEMPERATURE[K]               =                    0.1348976E+03   0.1341503E+03
 *******************************************************************************


 *******************************************************************************
 ENSEMBLE TYPE                =                                              NVE
 STEP NUMBER                  =                                              490
 CONSERVED QNTY               =                                    0.2854232E+03

                                                   INSTANTANEOUS        AVERAGES
 {E-E0}/E0                    =                    0.3440710E-05   0.1524486E-05
 TOTAL POTENTIAL ENERGY[hartre=                    0.2853814E+03   0.2853825E+03
 BOND CORRECT ENERGY[hartree] =                    0.0000000E+00   0.0000000E+00
 K+XC ENERGY[hartree]         =                    0.9365194E+03   0.9365194E+03
 CORE OVLP ENERGY[hartree]    =                    0.5425379E+00   0.5484090E+00
 HARTREE   ENERGY[hartree]    =                    0.3800403E+03   0.3800355E+03
 KINETIC ENERGY[hartree]      =                    0.4180866E-01   0.4017127E-01
 TEMPERATURE[K]               =                    0.1397043E+03   0.1342329E+03
 *******************************************************************************


 *******************************************************************************
 ENSEMBLE TYPE                =                                              NVE
 STEP NUMBER                  =                                              500
 CONSERVED QNTY               =                                    0.2854232E+03

                                                   INSTANTANEOUS        AVERAGES
 {E-E0}/E0                    =                    0.3401264E-05   0.1561584E-05
 TOTAL POTENTIAL ENERGY[hartre=                    0.2853823E+03   0.2853825E+03
 BOND CORRECT ENERGY[hartree] =                    0.0000000E+00   0.0000000E+00
 K+XC ENERGY[hartree]         =                    0.9365198E+03   0.9365194E+03
 CORE OVLP ENERGY[hartree]    =                    0.5418963E+00   0.5482792E+00
 HARTREE   ENERGY[hartree]    =                    0.3800414E+03   0.3800357E+03
 KINETIC ENERGY[hartree]      =                    0.4091195E-01   0.4019700E-01
 TEMPERATURE[K]               =                    0.1367079E+03   0.1343189E+03
 *******************************************************************************


 *******************************************************************************
 ENSEMBLE TYPE                =                                              NVE
 STEP NUMBER                  =                                              510
 CONSERVED QNTY               =                                    0.2854232E+03

                                                   INSTANTANEOUS        AVERAGES
 {E-E0}/E0                    =                    0.3240244E-05   0.1595257E-05
 TOTAL POTENTIAL ENERGY[hartre=                    0.2853838E+03   0.2853825E+03
 BOND CORRECT ENERGY[hartree] =                    0.0000000E+00   0.0000000E+00
 K+XC ENERGY[hartree]         =                    0.9365204E+03   0.9365194E+03
 CORE OVLP ENERGY[hartree]    =                    0.5431080E+00   0.5481668E+00
 HARTREE   ENERGY[hartree]    =                    0.3800411E+03   0.3800358E+03
 KINETIC ENERGY[hartree]      =                    0.3937815E-01   0.4019360E-01
 TEMPERATURE[K]               =                    0.1315827E+03   0.1343075E+03
 *******************************************************************************


 *******************************************************************************
 ENSEMBLE TYPE                =                                              NVE
 STEP NUMBER                  =                                              520
 CONSERVED QNTY               =                                    0.2854232E+03

                                                   INSTANTANEOUS        AVERAGES
 {E-E0}/E0                    =                    0.3297174E-05   0.1628555E-05
 TOTAL POTENTIAL ENERGY[hartre=                    0.2853839E+03   0.2853825E+03
 BOND CORRECT ENERGY[hartree] =                    0.0000000E+00   0.0000000E+00
 K+XC ENERGY[hartree]         =                    0.9365202E+03   0.9365194E+03
 CORE OVLP ENERGY[hartree]    =                    0.5428791E+00   0.5480720E+00
 HARTREE   ENERGY[hartree]    =                    0.3800416E+03   0.3800359E+03
 KINETIC ENERGY[hartree]      =                    0.3925152E-01   0.4017390E-01
 TEMPERATURE[K]               =                    0.1311596E+03   0.1342417E+03
 *******************************************************************************


 *******************************************************************************
 ENSEMBLE TYPE                =                                              NVE
 STEP NUMBER                  =                                              530
 CONSERVED QNTY               =                                    0.2854232E+03

                                                   INSTANTANEOUS        AVERAGES
 {E-E0}/E0                    =                    0.3246902E-05   0.1659119E-05
 TOTAL POTENTIAL ENERGY[hartre=                    0.2853823E+03   0.2853825E+03
 BOND CORRECT ENERGY[hartree] =                    0.0000000E+00   0.0000000E+00
 K+XC ENERGY[hartree]         =                    0.9365195E+03   0.9365194E+03
 CORE OVLP ENERGY[hartree]    =                    0.5385666E+00   0.5479366E+00
 HARTREE   ENERGY[hartree]    =                    0.3800451E+03   0.3800360E+03
 KINETIC ENERGY[hartree]      =                    0.4081257E-01   0.4017044E-01
 TEMPERATURE[K]               =                    0.1363758E+03   0.1342301E+03
 *******************************************************************************


 *******************************************************************************
 ENSEMBLE TYPE                =                                              NVE
 STEP NUMBER                  =                                              540
 CONSERVED QNTY               =                                    0.2854231E+03

                                                   INSTANTANEOUS        AVERAGES
 {E-E0}/E0                    =                    0.3007466E-05   0.1686054E-05
 TOTAL POTENTIAL ENERGY[hartre=                    0.2853798E+03   0.2853825E+03
 BOND CORRECT ENERGY[hartree] =                    0.0000000E+00   0.0000000E+00
 K+XC ENERGY[hartree]         =                    0.9365189E+03   0.9365194E+03
 CORE OVLP ENERGY[hartree]    =                    0.5297792E+00   0.5476797E+00
 HARTREE   ENERGY[hartree]    =                    0.3800519E+03   0.3800362E+03
 KINETIC ENERGY[hartree]      =                    0.4327932E-01   0.4020627E-01
 TEMPERATURE[K]               =                    0.1446185E+03   0.1343499E+03
 *******************************************************************************


 *******************************************************************************
 ENSEMBLE TYPE                =                                              NVE
 STEP NUMBER                  =                                              550
 CONSERVED QNTY               =                                    0.2854232E+03

                                                   INSTANTANEOUS        AVERAGES
 {E-E0}/E0                    =                    0.3472967E-05   0.1714234E-05
 TOTAL POTENTIAL ENERGY[hartre=                    0.2853768E+03   0.2853824E+03
 BOND CORRECT ENERGY[hartree] =                    0.0000000E+00   0.0000000E+00
 K+XC ENERGY[hartree]         =                    0.9365183E+03   0.9365194E+03
 CORE OVLP ENERGY[hartree]    =                    0.5183566E+00   0.5472414E+00
 HARTREE   ENERGY[hartree]    =                    0.3800609E+03   0.3800366E+03
 KINETIC ENERGY[hartree]      =                    0.4645850E-01   0.4029335E-01
 TEMPERATURE[K]               =                    0.1552418E+03   0.1346409E+03
 *******************************************************************************


 *******************************************************************************
 ENSEMBLE TYPE                =                                              NVE
 STEP NUMBER                  =                                              560
 CONSERVED QNTY               =                                    0.2854232E+03

                                                   INSTANTANEOUS        AVERAGES
 {E-E0}/E0                    =                    0.3444748E-05   0.1746294E-05
 TOTAL POTENTIAL ENERGY[hartre=                    0.2853742E+03   0.2853823E+03
 BOND CORRECT ENERGY[hartree] =                    0.0000000E+00   0.0000000E+00
 K+XC ENERGY[hartree]         =                    0.9365182E+03   0.9365194E+03
 CORE OVLP ENERGY[hartree]    =                    0.5079406E+00   0.5466188E+00
 HARTREE   ENERGY[hartree]    =                    0.3800689E+03   0.3800371E+03
 KINETIC ENERGY[hartree]      =                    0.4897756E-01   0.4042999E-01
 TEMPERATURE[K]               =                    0.1636593E+03   0.1350974E+03
 *******************************************************************************


 *******************************************************************************
 ENSEMBLE TYPE                =                                              NVE
 STEP NUMBER                  =                                              570
 CONSERVED QNTY               =                                    0.2854232E+03

                                                   INSTANTANEOUS        AVERAGES
 {E-E0}/E0                    =                    0.3431401E-05   0.1775638E-05
 TOTAL POTENTIAL ENERGY[hartre=                    0.2853727E+03   0.2853821E+03
 BOND CORRECT ENERGY[hartree] =                    0.0000000E+00   0.0000000E+00
 K+XC ENERGY[hartree]         =                    0.9365182E+03   0.9365193E+03
 CORE OVLP ENERGY[hartree]    =                    0.5018656E+00   0.5458742E+00
 HARTREE   ENERGY[hartree]    =                    0.3800734E+03   0.3800377E+03
 KINETIC ENERGY[hartree]      =                    0.5051997E-01   0.4059627E-01
 TEMPERATURE[K]               =                    0.1688133E+03   0.1356531E+03
 *******************************************************************************


 *******************************************************************************
 ENSEMBLE TYPE                =                                              NVE
 STEP NUMBER                  =                                              580
 CONSERVED QNTY               =                                    0.2854233E+03

                                                   INSTANTANEOUS        AVERAGES
 {E-E0}/E0                    =                    0.3760746E-05   0.1806719E-05
 TOTAL POTENTIAL ENERGY[hartre=                    0.2853727E+03   0.2853820E+03
 BOND CORRECT ENERGY[hartree] =                    0.0000000E+00   0.0000000E+00
 K+XC ENERGY[hartree]         =                    0.9365186E+03   0.9365193E+03
 CORE OVLP ENERGY[hartree]    =                    0.5006947E+00   0.5450982E+00
 HARTREE   ENERGY[hartree]    =                    0.3800743E+03   0.3800384E+03
 KINETIC ENERGY[hartree]      =                    0.5056086E-01   0.4076969E-01
 TEMPERATURE[K]               =                    0.1689499E+03   0.1362326E+03
 *******************************************************************************


 *******************************************************************************
 ENSEMBLE TYPE                =                                              NVE
 STEP NUMBER                  =                                              590
 CONSERVED QNTY               =                                    0.2854234E+03

                                                   INSTANTANEOUS        AVERAGES
 {E-E0}/E0                    =                    0.3995765E-05   0.1841807E-05
 TOTAL POTENTIAL ENERGY[hartre=                    0.2853735E+03   0.2853818E+03
 BOND CORRECT ENERGY[hartree] =                    0.0000000E+00   0.0000000E+00
 K+XC ENERGY[hartree]         =                    0.9365187E+03   0.9365193E+03
 CORE OVLP ENERGY[hartree]    =                    0.5027334E+00   0.5443615E+00
 HARTREE   ENERGY[hartree]    =                    0.3800728E+03   0.3800390E+03
 KINETIC ENERGY[hartree]      =                    0.4991651E-01   0.4093036E-01
 TEMPERATURE[K]               =                    0.1667968E+03   0.1367694E+03
 *******************************************************************************


 *******************************************************************************
 ENSEMBLE TYPE                =                                              NVE
 STEP NUMBER                  =                                              600
 CONSERVED QNTY               =                                    0.2854234E+03

                                                   INSTANTANEOUS        AVERAGES
 {E-E0}/E0                    =                    0.4022835E-05   0.1878573E-05
 TOTAL POTENTIAL ENERGY[hartre=                    0.2853753E+03   0.2853817E+03
 BOND CORRECT ENERGY[hartree] =                    0.0000000E+00   0.0000000E+00
 K+XC ENERGY[hartree]         =                    0.9365191E+03   0.9365193E+03
 CORE OVLP ENERGY[hartree]    =                    0.5063985E+00   0.5436999E+00
 HARTREE   ENERGY[hartree]    =                    0.3800706E+03   0.3800395E+03
 KINETIC ENERGY[hartree]      =                    0.4812282E-01   0.4106558E-01
 TEMPERATURE[K]               =                    0.1608032E+03   0.1372213E+03
 *******************************************************************************


 *******************************************************************************
 ENSEMBLE TYPE                =                                              NVE
 STEP NUMBER                  =                                              610
 CONSERVED QNTY               =                                    0.2854234E+03

                                                   INSTANTANEOUS        AVERAGES
 {E-E0}/E0                    =                    0.4179420E-05   0.1915025E-05
 TOTAL POTENTIAL ENERGY[hartre=                    0.2853774E+03   0.2853816E+03
 BOND CORRECT ENERGY[hartree] =                    0.0000000E+00   0.0000000E+00
 K+XC ENERGY[hartree]         =                    0.9365196E+03   0.9365193E+03
 CORE OVLP ENERGY[hartree]    =                    0.5107641E+00   0.5431272E+00
 HARTREE   ENERGY[hartree]    =                    0.3800679E+03   0.3800400E+03
 KINETIC ENERGY[hartree]      =                    0.4601868E-01   0.4116105E-01
 TEMPERATURE[K]               =                    0.1537721E+03   0.1375403E+03
 *******************************************************************************


 *******************************************************************************
 ENSEMBLE TYPE                =                                              NVE
 STEP NUMBER                  =                                              620
 CONSERVED QNTY               =                                    0.2854234E+03

                                                   INSTANTANEOUS        AVERAGES
 {E-E0}/E0                    =                    0.4076636E-05   0.1949801E-05
 TOTAL POTENTIAL ENERGY[hartre=                    0.2853785E+03   0.2853816E+03
[...]
 CONSERVED QNTY               =                                    0.2854260E+03

                                                   INSTANTANEOUS        AVERAGES
 {E-E0}/E0                    =                    0.1332577E-04   0.6608015E-05
 TOTAL POTENTIAL ENERGY[hartre=                    0.2853840E+03   0.2853801E+03
 BOND CORRECT ENERGY[hartree] =                    0.0000000E+00   0.0000000E+00
 K+XC ENERGY[hartree]         =                    0.9365197E+03   0.9365196E+03
 CORE OVLP ENERGY[hartree]    =                    0.5503659E+00   0.5286743E+00
 HARTREE   ENERGY[hartree]    =                    0.3800347E+03   0.3800526E+03
 KINETIC ENERGY[hartree]      =                    0.4207474E-01   0.4406032E-01
 TEMPERATURE[K]               =                    0.1405934E+03   0.1472283E+03
 *******************************************************************************


 *******************************************************************************
 ENSEMBLE TYPE                =                                              NVE
 STEP NUMBER                  =                                             4860
 CONSERVED QNTY               =                                    0.2854260E+03

                                                   INSTANTANEOUS        AVERAGES
 {E-E0}/E0                    =                    0.1303016E-04   0.6621475E-05
 TOTAL POTENTIAL ENERGY[hartre=                    0.2853850E+03   0.2853801E+03
 BOND CORRECT ENERGY[hartree] =                    0.0000000E+00   0.0000000E+00
 K+XC ENERGY[hartree]         =                    0.9365196E+03   0.9365196E+03
 CORE OVLP ENERGY[hartree]    =                    0.5571189E+00   0.5287273E+00
 HARTREE   ENERGY[hartree]    =                    0.3800291E+03   0.3800525E+03
 KINETIC ENERGY[hartree]      =                    0.4093664E-01   0.4405477E-01
 TEMPERATURE[K]               =                    0.1367904E+03   0.1472097E+03
 *******************************************************************************


 *******************************************************************************
 ENSEMBLE TYPE                =                                              NVE
 STEP NUMBER                  =                                             4870
 CONSERVED QNTY               =                                    0.2854259E+03

                                                   INSTANTANEOUS        AVERAGES
 {E-E0}/E0                    =                    0.1277350E-04   0.6634204E-05
 TOTAL POTENTIAL ENERGY[hartre=                    0.2853843E+03   0.2853801E+03
 BOND CORRECT ENERGY[hartree] =                    0.0000000E+00   0.0000000E+00
 K+XC ENERGY[hartree]         =                    0.9365190E+03   0.9365196E+03
 CORE OVLP ENERGY[hartree]    =                    0.5579978E+00   0.5287877E+00
 HARTREE   ENERGY[hartree]    =                    0.3800281E+03   0.3800525E+03
 KINETIC ENERGY[hartree]      =                    0.4158916E-01   0.4404877E-01
 TEMPERATURE[K]               =                    0.1389708E+03   0.1471896E+03
 *******************************************************************************


 *******************************************************************************
 ENSEMBLE TYPE                =                                              NVE
 STEP NUMBER                  =                                             4880
 CONSERVED QNTY               =                                    0.2854261E+03

                                                   INSTANTANEOUS        AVERAGES
 {E-E0}/E0                    =                    0.1367168E-04   0.6648090E-05
 TOTAL POTENTIAL ENERGY[hartre=                    0.2853831E+03   0.2853801E+03
 BOND CORRECT ENERGY[hartree] =                    0.0000000E+00   0.0000000E+00
 K+XC ENERGY[hartree]         =                    0.9365187E+03   0.9365196E+03
 CORE OVLP ENERGY[hartree]    =                    0.5534678E+00   0.5288432E+00
 HARTREE   ENERGY[hartree]    =                    0.3800317E+03   0.3800524E+03
 KINETIC ENERGY[hartree]      =                    0.4302673E-01   0.4404561E-01
 TEMPERATURE[K]               =                    0.1437745E+03   0.1471791E+03
 *******************************************************************************


 *******************************************************************************
 ENSEMBLE TYPE                =                                              NVE
 STEP NUMBER                  =                                             4890
 CONSERVED QNTY               =                                    0.2854261E+03

                                                   INSTANTANEOUS        AVERAGES
 {E-E0}/E0                    =                    0.1363969E-04   0.6662165E-05
 TOTAL POTENTIAL ENERGY[hartre=                    0.2853830E+03   0.2853801E+03
 BOND CORRECT ENERGY[hartree] =                    0.0000000E+00   0.0000000E+00
 K+XC ENERGY[hartree]         =                    0.9365196E+03   0.9365196E+03
 CORE OVLP ENERGY[hartree]    =                    0.5458261E+00   0.5288853E+00
 HARTREE   ENERGY[hartree]    =                    0.3800385E+03   0.3800524E+03
 KINETIC ENERGY[hartree]      =                    0.4311044E-01   0.4404364E-01
 TEMPERATURE[K]               =                    0.1440542E+03   0.1471725E+03
 *******************************************************************************


 *******************************************************************************
 ENSEMBLE TYPE                =                                              NVE
 STEP NUMBER                  =                                             4900
 CONSERVED QNTY               =                                    0.2854261E+03

                                                   INSTANTANEOUS        AVERAGES
 {E-E0}/E0                    =                    0.1361485E-04   0.6676453E-05
 TOTAL POTENTIAL ENERGY[hartre=                    0.2853822E+03   0.2853801E+03
 BOND CORRECT ENERGY[hartree] =                    0.0000000E+00   0.0000000E+00
 K+XC ENERGY[hartree]         =                    0.9365202E+03   0.9365196E+03
 CORE OVLP ENERGY[hartree]    =                    0.5369070E+00   0.5289099E+00
 HARTREE   ENERGY[hartree]    =                    0.3800460E+03   0.3800524E+03
 KINETIC ENERGY[hartree]      =                    0.4388331E-01   0.4404234E-01
 TEMPERATURE[K]               =                    0.1466368E+03   0.1471682E+03
 *******************************************************************************


 *******************************************************************************
 ENSEMBLE TYPE                =                                              NVE
 STEP NUMBER                  =                                             4910
 CONSERVED QNTY               =                                    0.2854262E+03

                                                   INSTANTANEOUS        AVERAGES
 {E-E0}/E0                    =                    0.1393035E-04   0.6690902E-05
 TOTAL POTENTIAL ENERGY[hartre=                    0.2853800E+03   0.2853801E+03
 BOND CORRECT ENERGY[hartree] =                    0.0000000E+00   0.0000000E+00
 K+XC ENERGY[hartree]         =                    0.9365199E+03   0.9365196E+03
 CORE OVLP ENERGY[hartree]    =                    0.5282551E+00   0.5289163E+00
 HARTREE   ENERGY[hartree]    =                    0.3800527E+03   0.3800524E+03
 KINETIC ENERGY[hartree]      =                    0.4619804E-01   0.4404442E-01
 TEMPERATURE[K]               =                    0.1543715E+03   0.1471751E+03
 *******************************************************************************


 *******************************************************************************
 ENSEMBLE TYPE                =                                              NVE
 STEP NUMBER                  =                                             4920
 CONSERVED QNTY               =                                    0.2854262E+03

                                                   INSTANTANEOUS        AVERAGES
 {E-E0}/E0                    =                    0.1397084E-04   0.6705786E-05
 TOTAL POTENTIAL ENERGY[hartre=                    0.2853781E+03   0.2853801E+03
 BOND CORRECT ENERGY[hartree] =                    0.0000000E+00   0.0000000E+00
 K+XC ENERGY[hartree]         =                    0.9365195E+03   0.9365196E+03
 CORE OVLP ENERGY[hartree]    =                    0.5211702E+00   0.5289067E+00
 HARTREE   ENERGY[hartree]    =                    0.3800583E+03   0.3800524E+03
 KINETIC ENERGY[hartree]      =                    0.4813356E-01   0.4405126E-01
 TEMPERATURE[K]               =                    0.1608390E+03   0.1471980E+03
 *******************************************************************************


 *******************************************************************************
 ENSEMBLE TYPE                =                                              NVE
 STEP NUMBER                  =                                             4930
 CONSERVED QNTY               =                                    0.2854262E+03

                                                   INSTANTANEOUS        AVERAGES
 {E-E0}/E0                    =                    0.1398475E-04   0.6720716E-05
 TOTAL POTENTIAL ENERGY[hartre=                    0.2853777E+03   0.2853801E+03
 BOND CORRECT ENERGY[hartree] =                    0.0000000E+00   0.0000000E+00
 K+XC ENERGY[hartree]         =                    0.9365198E+03   0.9365196E+03
 CORE OVLP ENERGY[hartree]    =                    0.5160977E+00   0.5288850E+00
 HARTREE   ENERGY[hartree]    =                    0.3800626E+03   0.3800524E+03
 KINETIC ENERGY[hartree]      =                    0.4853259E-01   0.4406018E-01
 TEMPERATURE[K]               =                    0.1621724E+03   0.1472278E+03
 *******************************************************************************


 *******************************************************************************
 ENSEMBLE TYPE                =                                              NVE
 STEP NUMBER                  =                                             4940
 CONSERVED QNTY               =                                    0.2854263E+03

                                                   INSTANTANEOUS        AVERAGES
 {E-E0}/E0                    =                    0.1409526E-04   0.6735576E-05
 TOTAL POTENTIAL ENERGY[hartre=                    0.2853778E+03   0.2853801E+03
 BOND CORRECT ENERGY[hartree] =                    0.0000000E+00   0.0000000E+00
 K+XC ENERGY[hartree]         =                    0.9365205E+03   0.9365196E+03
 CORE OVLP ENERGY[hartree]    =                    0.5132635E+00   0.5288555E+00
 HARTREE   ENERGY[hartree]    =                    0.3800649E+03   0.3800524E+03
 KINETIC ENERGY[hartree]      =                    0.4848035E-01   0.4406930E-01
 TEMPERATURE[K]               =                    0.1619979E+03   0.1472583E+03
 *******************************************************************************


 *******************************************************************************
 ENSEMBLE TYPE                =                                              NVE
 STEP NUMBER                  =                                             4950
 CONSERVED QNTY               =                                    0.2854263E+03

                                                   INSTANTANEOUS        AVERAGES
 {E-E0}/E0                    =                    0.1420293E-04   0.6750559E-05
 TOTAL POTENTIAL ENERGY[hartre=                    0.2853788E+03   0.2853801E+03
 BOND CORRECT ENERGY[hartree] =                    0.0000000E+00   0.0000000E+00
 K+XC ENERGY[hartree]         =                    0.9365213E+03   0.9365196E+03
 CORE OVLP ENERGY[hartree]    =                    0.5138510E+00   0.5288240E+00
 HARTREE   ENERGY[hartree]    =                    0.3800645E+03   0.3800525E+03
 KINETIC ENERGY[hartree]      =                    0.4748997E-01   0.4407718E-01
 TEMPERATURE[K]               =                    0.1586885E+03   0.1472846E+03
 *******************************************************************************


 *******************************************************************************
 ENSEMBLE TYPE                =                                              NVE
 STEP NUMBER                  =                                             4960
 CONSERVED QNTY               =                                    0.2854263E+03

                                                   INSTANTANEOUS        AVERAGES
 {E-E0}/E0                    =                    0.1408600E-04   0.6765430E-05
 TOTAL POTENTIAL ENERGY[hartre=                    0.2853796E+03   0.2853801E+03
 BOND CORRECT ENERGY[hartree] =                    0.0000000E+00   0.0000000E+00
 K+XC ENERGY[hartree]         =                    0.9365211E+03   0.9365196E+03
 CORE OVLP ENERGY[hartree]    =                    0.5188008E+00   0.5287986E+00
 HARTREE   ENERGY[hartree]    =                    0.3800605E+03   0.3800525E+03
 KINETIC ENERGY[hartree]      =                    0.4665949E-01   0.4408299E-01
 TEMPERATURE[K]               =                    0.1559134E+03   0.1473040E+03
 *******************************************************************************


 *******************************************************************************
 ENSEMBLE TYPE                =                                              NVE
 STEP NUMBER                  =                                             4970
 CONSERVED QNTY               =                                    0.2854262E+03

                                                   INSTANTANEOUS        AVERAGES
 {E-E0}/E0                    =                    0.1402839E-04   0.6780059E-05
 TOTAL POTENTIAL ENERGY[hartre=                    0.2853803E+03   0.2853801E+03
 BOND CORRECT ENERGY[hartree] =                    0.0000000E+00   0.0000000E+00
 K+XC ENERGY[hartree]         =                    0.9365203E+03   0.9365196E+03
 CORE OVLP ENERGY[hartree]    =                    0.5279902E+00   0.5287880E+00
 HARTREE   ENERGY[hartree]    =                    0.3800528E+03   0.3800525E+03
 KINETIC ENERGY[hartree]      =                    0.4596725E-01   0.4408755E-01
 TEMPERATURE[K]               =                    0.1536003E+03   0.1473192E+03
 *******************************************************************************


 *******************************************************************************
 ENSEMBLE TYPE                =                                              NVE
 STEP NUMBER                  =                                             4980
 CONSERVED QNTY               =                                    0.2854262E+03

                                                   INSTANTANEOUS        AVERAGES
 {E-E0}/E0                    =                    0.1396847E-04   0.6794597E-05
 TOTAL POTENTIAL ENERGY[hartre=                    0.2853823E+03   0.2853801E+03
 BOND CORRECT ENERGY[hartree] =                    0.0000000E+00   0.0000000E+00
 K+XC ENERGY[hartree]         =                    0.9365201E+03   0.9365196E+03
 CORE OVLP ENERGY[hartree]    =                    0.5399530E+00   0.5287994E+00
 HARTREE   ENERGY[hartree]    =                    0.3800431E+03   0.3800525E+03
 KINETIC ENERGY[hartree]      =                    0.4394148E-01   0.4408933E-01
 TEMPERATURE[K]               =                    0.1468311E+03   0.1473252E+03
 *******************************************************************************


 *******************************************************************************
 ENSEMBLE TYPE                =                                              NVE
 STEP NUMBER                  =                                             4990
 CONSERVED QNTY               =                                    0.2854261E+03

                                                   INSTANTANEOUS        AVERAGES
 {E-E0}/E0                    =                    0.1371620E-04   0.6808541E-05
 TOTAL POTENTIAL ENERGY[hartre=                    0.2853851E+03   0.2853801E+03
 BOND CORRECT ENERGY[hartree] =                    0.0000000E+00   0.0000000E+00
 K+XC ENERGY[hartree]         =                    0.9365203E+03   0.9365196E+03
 CORE OVLP ENERGY[hartree]    =                    0.5504727E+00   0.5288340E+00
 HARTREE   ENERGY[hartree]    =                    0.3800351E+03   0.3800524E+03
 KINETIC ENERGY[hartree]      =                    0.4108387E-01   0.4408578E-01
 TEMPERATURE[K]               =                    0.1372824E+03   0.1473133E+03
 *******************************************************************************


 *******************************************************************************
 ENSEMBLE TYPE                =                                              NVE
 STEP NUMBER                  =                                             5000
 CONSERVED QNTY               =                                    0.2854262E+03

                                                   INSTANTANEOUS        AVERAGES
 {E-E0}/E0                    =                    0.1396278E-04   0.6822602E-05
 TOTAL POTENTIAL ENERGY[hartre=                    0.2853861E+03   0.2853801E+03
 BOND CORRECT ENERGY[hartree] =                    0.0000000E+00   0.0000000E+00
 K+XC ENERGY[hartree]         =                    0.9365204E+03   0.9365196E+03
 CORE OVLP ENERGY[hartree]    =                    0.5544168E+00   0.5288830E+00
 HARTREE   ENERGY[hartree]    =                    0.3800321E+03   0.3800524E+03
 KINETIC ENERGY[hartree]      =                    0.4009629E-01   0.4407818E-01
 TEMPERATURE[K]               =                    0.1339824E+03   0.1472879E+03
 *******************************************************************************


 -------------------------------------------------------------------------------
 -                                                                             -
 -                                T I M I N G                                  -
 -                                                                             -
 -------------------------------------------------------------------------------
 SUBROUTINE                        CALLS  CPU TIME T  PERFORMANCE   ELAPSED TIME
 CP2K                                  1   6955.05 I       ---           6962.43
 CNTL_WORK                             1   6954.96 I       ---           6962.34
 FORCE                              5001   6951.73 I       ---           6958.57
 VELOCITY VERLET                    5000   6950.65 I       ---           6957.36
 fft_wrap_pw1pw2                   70014   3745.04 I       ---           3748.91
 fft3d_s                           70015   2503.63 I 179.6 Mflops        2505.46
 calculate_density                  5001    653.40 I       ---            654.23
 calculate_v_rspace_forces          5001    586.15 I       ---            586.83
 perdew_zunger lda                  5001    542.44 I       ---            542.48
 calculate_epc_density              5001    377.37 I       ---            377.95
 pw_scatter                        35007    344.23 I   2.9 Mcopy          344.65
 pw_zero                           55011    152.27 I  31.2 Mzero          152.60
 -------------------------------------------------------------------------------


  **** **** ******  **  PROGRAM ENDED AT                Wed Oct 23 17:01:53 2002
 ***** ** ***  *** **   PROGRAM RAN ON                                        ka
 **    ****   ******    PROGRAM RAN BY                                    gloria
 ***** **    ** ** **   PROGRAM PROCESS ID                                 26328
  **** **  *******  **  PROGRAM RAN IN     
                                       /home/chem/gloria/CP2K/CP2K/tests/KG/Neon
 
