 hutter@pcihopt3 has created process number                          0      2338

  **** **** ******  **  PROGRAM STARTED AT                   20090316 124141.480
 ***** ** ***  *** **   PROGRAM STARTED ON                              pcihopt3
 **    ****   ******    PROGRAM STARTED BY                                hutter
 ***** **    ** ** **   PROGRAM PROCESS ID                                  2338
  **** **  *******  **  PROGRAM STARTED IN /data03/hutter/cp2k/tests/ATOM/regtes
                                           t-1

 CP2K| version string:                  CP2K version 2.0.1 (Development Version)
 CP2K| is freely available from                          http://cp2k.berlios.de/
 CP2K| Program compiled at                          Sat Mar 14 16:08:29 CET 2009
 CP2K| Program compiled on                                              pcihopt3
 CP2K| Program compiled for                                     Linux-x86-64-g95
 CP2K| Last CVS entry               qs_spin_orbit.F/1.1/Fri Mar 13 15:32:59 2009
 CP2K| Input file name                                                    Ac.inp

 GLOBAL| Method name                                                        ATOM
 GLOBAL| Project name                                                    PROJECT
 GLOBAL| Preferred FFT library                                             FFTW3
 GLOBAL| Run type                                                   ENERGY_FORCE
 GLOBAL| All-to-all communication in single precision                          F
 GLOBAL| FFTs using library dependent lengths                                  F
 GLOBAL| Global print level                                                    2
 GLOBAL| Total number of message passing processes                             1
 GLOBAL| Number of threads for this process                                    1
 GLOBAL| This output is from process                                           0


 *** Fundamental physical constants (SI units) ***

 *** Literature: B. J. Mohr and B. N. Taylor,
 ***             CODATA recommended values of the fundamental physical
 ***             constants: 2006, Web Version 5.1
 ***             http://physics.nist.gov/constants

 Speed of light in vacuum [m/s]                             2.99792458000000E+08
 Magnetic constant or permeability of vacuum [N/A**2]       1.25663706143592E-06
 Electric constant or permittivity of vacuum [F/m]          8.85418781762039E-12
 Planck constant (h) [J*s]                                  6.62606896000000E-34
 Planck constant (h-bar) [J*s]                              1.05457162825177E-34
 Elementary charge [C]                                      1.60217648700000E-19
 Electron mass [kg]                                         9.10938215000000E-31
 Electron g factor [ ]                                     -2.00231930436220E+00
 Fine-structure constant                                    7.29735253760000E-03
 Rydberg constant [1/m]                                     1.09737315685270E+07
 Avogrado constant [1/mol]                                  6.02214179000000E+23
 Boltzmann constant [J/K]                                   1.38065040000000E-23
 Atomic mass unit [kg]                                      1.66053878200000E-27
 Bohr radius [m]                                            5.29177208590000E-11

 *** Conversion factors ***

 [u] -> [a.u.]                                              1.82288848426455E+03
 [Angstrom] -> [Bohr] = [a.u.]                              1.88972613288564E+00
 [a.u.] = [Bohr] -> [Angstrom]                              5.29177208590000E-01
 [a.u.] -> [s]                                              2.41888432650478E-17
 [a.u.] -> [fs]                                             2.41888432650478E-02
 [a.u.] -> [J]                                              4.35974393937059E-18
 [a.u.] -> [K]                                              3.15774647902944E+05
 [a.u.] -> [kJ/mol]                                         2.62549961709828E+03
 [a.u.] -> [kcal/mol]                                       6.27509468713739E+02
 [a.u.] -> [Pa]                                             2.94210107994716E+13
 [a.u.] -> [bar]                                            2.94210107994716E+08
 [a.u.] -> [atm]                                            2.90362800883016E+08
 [a.u.] -> [eV]                                             2.72113838565563E+01
 [a.u.] -> [Hz]                                             6.57968392072181E+15
 [a.u.] -> [1/cm] (wave numbers)                            2.19474631370540E+05
 [a.u./Bohr**2] -> [1/cm]                                   5.14048714338585E+03
 


                           ****  ******  ****   ****   
                          **  ** ****** **  ** ******  
                          ******   **   **  ** **  **  
                          **  **   **    ****  **  **  
                                                       
                             University of Zurich      
                                    2009               
                                                       
                                 Version 0.0           
                                                                   


 Atomic Energy Calculation             Actinium [Ac]         Atomic number:   89


 METHOD    | Restricted Kohn-Sham Calculation
 METHOD    | Relativistic Calculation using Douglas-Kroll 3rd order
 FUNCTIONAL| ROUTINE=NEW
 FUNCTIONAL| PBE:
 FUNCTIONAL| J.P.Perdew, K.Burke, M.Ernzerhof, Phys. Rev. Letter, vol. 77, n 18,
 FUNCTIONAL|  pp. 3865-3868, (1996){spin unpolarized}
 CAW:  DKH2 with even2c (Alex)
 !JT:  Now available in cp2k
 CAW:  DKH3 with even3b (Alex)
 JT:  Now available in cp2k
 CAW:  DKH2 with even2c (Alex)
 !JT:  Now available in cp2k
 CAW:  DKH3 with even3b (Alex)
 JT:  Now available in cp2k
 CAW:  DKH2 with even2c (Alex)
 !JT:  Now available in cp2k
 CAW:  DKH3 with even3b (Alex)
 JT:  Now available in cp2k
 CAW:  DKH2 with even2c (Alex)
 !JT:  Now available in cp2k
 CAW:  DKH3 with even3b (Alex)
 JT:  Now available in cp2k


 Electronic structure 
    Total number of core electrons                                          0.00
    Total number of valence electrons                                      89.00
    Total number of electrons                                              89.00
    S      2.00  2.00  2.00  2.00  2.00  2.00  2.00
    P      6.00  6.00  6.00  6.00  6.00
    D     10.00 10.00 10.00  1.00
    F     14.00


 *******************************************************************************
                  Iteration          Convergence                     Energy [au]
 *******************************************************************************
                          1         158.104                  -24031.585468146928
                          2         42.5022                  -24151.962909800506
                          3         8.92257                  -24261.922329309451
                          4         2.36829                  -24272.090864065423
                          5        0.291227                  -24272.661225297412
                          6        0.369983                  -24272.654849975293
                          7        0.150685E-01              -24272.673514198694
                          8        0.167893E-02              -24272.673544691701
                          9        0.102356E-03              -24272.673545051111
                         10        0.219785E-05              -24272.673545052567
                         11        0.140525E-06              -24272.673545052556

 Energy components [Hartree]           Total Energy ::       -24272.673545052556
                                        Band Energy ::       -16232.917570480084
                                     Kinetic Energy ::        28327.606264952879
                                        Core Energy ::       -32035.542409854053
                                          XC Energy ::         -400.116945631225
                                     Coulomb Energy ::         8162.985810432721
                                 HF Exchange Energy ::            0.000000000000

 Orbital energies  State     L     Occupation   Energy[a.u.]          Energy[eV]

                       1     0          2.000   -3619.605255       -98494.468003
                       2     0          2.000    -702.913190       -19127.240626
                       3     0          2.000    -194.038114        -5280.045604
                       4     0          2.000     -59.881328        -1629.453810
                       5     0          2.000     -17.380315         -472.942424
                       6     0          2.000      -3.496541          -95.145723
                       7     0          2.000      -0.240726           -6.550489

                       1     1          6.000    -641.418606       -17453.887895
                       2     1          6.000    -174.330320        -4743.769243
                       3     1          6.000     -52.270673        -1422.357338
                       4     1          6.000     -14.342041         -390.266784
                       5     1          6.000      -2.417291          -65.777843

                       1     2         10.000    -129.479961        -3523.328911
                       2     2         10.000     -35.288165         -960.239799
                       3     2         10.000      -7.943859         -216.163390
                       4     2          1.000      -0.499914          -13.603363

                       1     3         14.000      -0.108092           -2.941342



                             NORMAL TERMINATION OF     
                                                       
                           ****  ******  ****   ****   
                          **  ** ****** **  ** ******  
                          ******   **   **  ** **  **  
                          **  **   **    ****  **  **  


 -------------------------------------------------------------------------------
 -                                                                             -
 -                           R E F E R E N C E S                               -
 -                                                                             -
 -------------------------------------------------------------------------------
 
 CP2K version 2.0.1 (Development Version), the CP2K developers group (2009).
 CP2K is freely available from http://cp2k.berlios.de/ .

 Frigo, M; Johnson, SG. 
 PROCEEDINGS OF THE IEEE, 93 (2), 216-231 (2005). 
 The design and implementation of FFTW3.
 http://dx.doi.org/10.1109/JPROC.2004.840301


 Perdew, JP; Burke, K; Ernzerhof, M. 
 PHYSICAL REVIEW LETTERS, 77 (18), 3865-3868 (1996). 
 Generalized gradient approximation made simple.
 http://dx.doi.org/10.1103/PhysRevLett.77.3865


 -------------------------------------------------------------------------------
 -                                                                             -
 -                                T I M I N G                                  -
 -                                                                             -
 -------------------------------------------------------------------------------
 SUBROUTINE                      CALLS  ASD          SELF TIME        TOTAL TIME
                                              AVERAGE  MAXIMUM  AVERAGE  MAXIMUM
 CP2K                                1  1.0      0.00     0.00     0.12     0.12
 atom_code                           1  2.0      0.00     0.00     0.11     0.11
 atom_energy                         1  3.0      0.01     0.01     0.11     0.11
 calculate_atom                      1  4.0      0.03     0.03     0.10     0.10
 calculate_atom_vxc                 11  5.0      0.07     0.07     0.07     0.07
 xc_functional_eval                 11  6.0      0.00     0.00     0.01     0.01
 pbe_lda_eval                       11  7.0      0.01     0.01     0.01     0.01
 -------------------------------------------------------------------------------

  **** **** ******  **  PROGRAM ENDED AT                     20090316 124141.598
 ***** ** ***  *** **   PROGRAM RAN ON                                  pcihopt3
 **    ****   ******    PROGRAM RAN BY                                    hutter
 ***** **    ** ** **   PROGRAM PROCESS ID                                  2338
  **** **  *******  **  PROGRAM STARTED IN /data03/hutter/cp2k/tests/ATOM/regtes
                                           t-1
 hutter@pcihopt3 has created process number                          0      2343

  **** **** ******  **  PROGRAM STARTED AT                   20090316 124141.708
 ***** ** ***  *** **   PROGRAM STARTED ON                              pcihopt3
 **    ****   ******    PROGRAM STARTED BY                                hutter
 ***** **    ** ** **   PROGRAM PROCESS ID                                  2343
  **** **  *******  **  PROGRAM STARTED IN /data03/hutter/cp2k/tests/ATOM/regtes
                                           t-1

 CP2K| version string:                  CP2K version 2.0.1 (Development Version)
 CP2K| is freely available from                          http://cp2k.berlios.de/
 CP2K| Program compiled at                          Sat Mar 14 16:08:29 CET 2009
 CP2K| Program compiled on                                              pcihopt3
 CP2K| Program compiled for                                     Linux-x86-64-g95
 CP2K| Last CVS entry               qs_spin_orbit.F/1.1/Fri Mar 13 15:32:59 2009
 CP2K| Input file name                                                    Ag.inp

 GLOBAL| Method name                                                        ATOM
 GLOBAL| Project name                                                    PROJECT
 GLOBAL| Preferred FFT library                                             FFTW3
 GLOBAL| Run type                                                   ENERGY_FORCE
 GLOBAL| All-to-all communication in single precision                          F
 GLOBAL| FFTs using library dependent lengths                                  F
 GLOBAL| Global print level                                                    2
 GLOBAL| Total number of message passing processes                             1
 GLOBAL| Number of threads for this process                                    1
 GLOBAL| This output is from process                                           0


 *** Fundamental physical constants (SI units) ***

 *** Literature: B. J. Mohr and B. N. Taylor,
 ***             CODATA recommended values of the fundamental physical
 ***             constants: 2006, Web Version 5.1
 ***             http://physics.nist.gov/constants

 Speed of light in vacuum [m/s]                             2.99792458000000E+08
 Magnetic constant or permeability of vacuum [N/A**2]       1.25663706143592E-06
 Electric constant or permittivity of vacuum [F/m]          8.85418781762039E-12
 Planck constant (h) [J*s]                                  6.62606896000000E-34
 Planck constant (h-bar) [J*s]                              1.05457162825177E-34
 Elementary charge [C]                                      1.60217648700000E-19
 Electron mass [kg]                                         9.10938215000000E-31
 Electron g factor [ ]                                     -2.00231930436220E+00
 Fine-structure constant                                    7.29735253760000E-03
 Rydberg constant [1/m]                                     1.09737315685270E+07
 Avogrado constant [1/mol]                                  6.02214179000000E+23
 Boltzmann constant [J/K]                                   1.38065040000000E-23
 Atomic mass unit [kg]                                      1.66053878200000E-27
 Bohr radius [m]                                            5.29177208590000E-11

 *** Conversion factors ***

 [u] -> [a.u.]                                              1.82288848426455E+03
 [Angstrom] -> [Bohr] = [a.u.]                              1.88972613288564E+00
 [a.u.] = [Bohr] -> [Angstrom]                              5.29177208590000E-01
 [a.u.] -> [s]                                              2.41888432650478E-17
 [a.u.] -> [fs]                                             2.41888432650478E-02
 [a.u.] -> [J]                                              4.35974393937059E-18
 [a.u.] -> [K]                                              3.15774647902944E+05
 [a.u.] -> [kJ/mol]                                         2.62549961709828E+03
 [a.u.] -> [kcal/mol]                                       6.27509468713739E+02
 [a.u.] -> [Pa]                                             2.94210107994716E+13
 [a.u.] -> [bar]                                            2.94210107994716E+08
 [a.u.] -> [atm]                                            2.90362800883016E+08
 [a.u.] -> [eV]                                             2.72113838565563E+01
 [a.u.] -> [Hz]                                             6.57968392072181E+15
 [a.u.] -> [1/cm] (wave numbers)                            2.19474631370540E+05
 [a.u./Bohr**2] -> [1/cm]                                   5.14048714338585E+03
 


                           ****  ******  ****   ****   
                          **  ** ****** **  ** ******  
                          ******   **   **  ** **  **  
                          **  **   **    ****  **  **  
                                                       
                             University of Zurich      
                                    2009               
                                                       
                                 Version 0.0           
                                                                   


 Atomic Energy Calculation             Silver [Ag]           Atomic number:   47


 METHOD    | Restricted Kohn-Sham Calculation
 METHOD    | Relativistic Calculation using Douglas-Kroll 3rd order
 FUNCTIONAL| ROUTINE=NEW
 FUNCTIONAL| BECKE88:
 FUNCTIONAL| A. Becke, Phys. Rev. A 38, 3098 (1988) {LDA version}
 FUNCTIONAL| LYP:
 FUNCTIONAL| C. Lee, W. Yang, R.G. Parr, Phys. Rev. B, 37, 785 (1988) {LDA versi
 FUNCTIONAL| on}
 CAW:  DKH2 with even2c (Alex)
 !JT:  Now available in cp2k
 CAW:  DKH3 with even3b (Alex)
 JT:  Now available in cp2k
 CAW:  DKH2 with even2c (Alex)
 !JT:  Now available in cp2k
 CAW:  DKH3 with even3b (Alex)
 JT:  Now available in cp2k
 CAW:  DKH2 with even2c (Alex)
 !JT:  Now available in cp2k
 CAW:  DKH3 with even3b (Alex)
 JT:  Now available in cp2k
 CAW:  DKH2 with even2c (Alex)
 !JT:  Now available in cp2k
 CAW:  DKH3 with even3b (Alex)
 JT:  Now available in cp2k


 Electronic structure 
    Total number of core electrons                                          0.00
    Total number of valence electrons                                      47.00
    Total number of electrons                                              47.00
    S      2.00  2.00  2.00  2.00  1.00
    P      6.00  6.00  6.00
    D     10.00 10.00


 *******************************************************************************
                  Iteration          Convergence                     Energy [au]
 *******************************************************************************
                          1         109.270                   -5067.538806591006
                          2         28.4642                   -4694.128682159165
                          3         48.1812                   -5199.789210201468
                          4         15.9958                   -5283.570665470482
                          5         5.87484                   -5311.022933546157
                          6         2.38763                   -5279.242230613242
                          7         3.31183                   -5311.465978649477
                          8         2.95442                   -5312.214600331188
                          9         1.12049                   -5314.299072683476
                         10        0.158821                   -5314.708828522926
                         11        0.137070E-01               -5314.717225143324
                         12        0.913536E-03               -5314.717288163176
                         13        0.506308E-04               -5314.717288418168
                         14        0.111665E-04               -5314.717288418750
                         15        0.761125E-06               -5314.717288418783

 Energy components [Hartree]           Total Energy ::        -5314.717288418783
                                        Band Energy ::        -3196.028185626149
                                     Kinetic Energy ::         6015.437694745591
                                        Core Energy ::        -7327.797514219790
                                          XC Energy ::         -150.910638850504
                                     Coulomb Energy ::         2163.990864651511
                                 HF Exchange Energy ::            0.000000000000

 Orbital energies  State     L     Occupation   Energy[a.u.]          Energy[eV]

                       1     0          2.000    -929.307930       -25287.754801
                       2     0          2.000    -136.842568        -3723.675657
                       3     0          2.000     -25.081240         -682.495258
                       4     0          2.000      -3.485002          -94.831733
                       5     0          1.000      -0.163448           -4.447642

                       1     1          6.000    -122.789724        -3341.278318
                       2     1          6.000     -20.453534         -556.568966
                       3     1          6.000      -2.144836          -58.363964

                       1     2         10.000     -13.140399         -357.568448
                       2     2         10.000      -0.269870           -7.343526



                             NORMAL TERMINATION OF     
                                                       
                           ****  ******  ****   ****   
                          **  ** ****** **  ** ******  
                          ******   **   **  ** **  **  
                          **  **   **    ****  **  **  


 -------------------------------------------------------------------------------
 -                                                                             -
 -                           R E F E R E N C E S                               -
 -                                                                             -
 -------------------------------------------------------------------------------
 
 CP2K version 2.0.1 (Development Version), the CP2K developers group (2009).
 CP2K is freely available from http://cp2k.berlios.de/ .

 Frigo, M; Johnson, SG. 
 PROCEEDINGS OF THE IEEE, 93 (2), 216-231 (2005). 
 The design and implementation of FFTW3.
 http://dx.doi.org/10.1109/JPROC.2004.840301


 BECKE, AD. PHYSICAL REVIEW A, 38 (6), 3098-3100 (1988). 
 DENSITY-FUNCTIONAL EXCHANGE-ENERGY APPROXIMATION WITH CORRECT
 ASYMPTOTIC-BEHAVIOR.
 http://dx.doi.org/10.1103/PhysRevA.38.3098


 LEE, CT; YANG, WT; PARR, RG. 
 PHYSICAL REVIEW B, 37 (2), 785-789 (1988). 
 DEVELOPMENT OF THE COLLE-SALVETTI CORRELATION-ENERGY FORMULA INTO A
 FUNCTIONAL OF THE ELECTRON-DENSITY.
 http://dx.doi.org/10.1103/PhysRevB.37.785


 -------------------------------------------------------------------------------
 -                                                                             -
 -                                T I M I N G                                  -
 -                                                                             -
 -------------------------------------------------------------------------------
 SUBROUTINE                      CALLS  ASD          SELF TIME        TOTAL TIME
                                              AVERAGE  MAXIMUM  AVERAGE  MAXIMUM
 CP2K                                1  1.0      0.00     0.00     1.12     1.12
 atom_code                           1  2.0      0.00     0.00     1.11     1.11
 atom_energy                         1  3.0      0.01     0.01     1.11     1.11
 calculate_atom                      1  4.0      0.33     0.33     1.07     1.07
 calculate_atom_vxc                 15  5.0      0.74     0.74     0.74     0.74
 -------------------------------------------------------------------------------

  **** **** ******  **  PROGRAM ENDED AT                     20090316 124142.826
 ***** ** ***  *** **   PROGRAM RAN ON                                  pcihopt3
 **    ****   ******    PROGRAM RAN BY                                    hutter
 ***** **    ** ** **   PROGRAM PROCESS ID                                  2343
  **** **  *******  **  PROGRAM STARTED IN /data03/hutter/cp2k/tests/ATOM/regtes
                                           t-1
 hutter@pcihopt3 has created process number                          0      2348

  **** **** ******  **  PROGRAM STARTED AT                   20090316 124142.935
 ***** ** ***  *** **   PROGRAM STARTED ON                              pcihopt3
 **    ****   ******    PROGRAM STARTED BY                                hutter
 ***** **    ** ** **   PROGRAM PROCESS ID                                  2348
  **** **  *******  **  PROGRAM STARTED IN /data03/hutter/cp2k/tests/ATOM/regtes
                                           t-1

 CP2K| version string:                  CP2K version 2.0.1 (Development Version)
 CP2K| is freely available from                          http://cp2k.berlios.de/
 CP2K| Program compiled at                          Sat Mar 14 16:08:29 CET 2009
 CP2K| Program compiled on                                              pcihopt3
 CP2K| Program compiled for                                     Linux-x86-64-g95
 CP2K| Last CVS entry               qs_spin_orbit.F/1.1/Fri Mar 13 15:32:59 2009
 CP2K| Input file name                                                    Al.inp

 GLOBAL| Method name                                                        ATOM
 GLOBAL| Project name                                                    PROJECT
 GLOBAL| Preferred FFT library                                             FFTW3
 GLOBAL| Run type                                                   ENERGY_FORCE
 GLOBAL| All-to-all communication in single precision                          F
 GLOBAL| FFTs using library dependent lengths                                  F
 GLOBAL| Global print level                                                    2
 GLOBAL| Total number of message passing processes                             1
 GLOBAL| Number of threads for this process                                    1
 GLOBAL| This output is from process                                           0


 *** Fundamental physical constants (SI units) ***

 *** Literature: B. J. Mohr and B. N. Taylor,
 ***             CODATA recommended values of the fundamental physical
 ***             constants: 2006, Web Version 5.1
 ***             http://physics.nist.gov/constants

 Speed of light in vacuum [m/s]                             2.99792458000000E+08
 Magnetic constant or permeability of vacuum [N/A**2]       1.25663706143592E-06
 Electric constant or permittivity of vacuum [F/m]          8.85418781762039E-12
 Planck constant (h) [J*s]                                  6.62606896000000E-34
 Planck constant (h-bar) [J*s]                              1.05457162825177E-34
 Elementary charge [C]                                      1.60217648700000E-19
 Electron mass [kg]                                         9.10938215000000E-31
 Electron g factor [ ]                                     -2.00231930436220E+00
 Fine-structure constant                                    7.29735253760000E-03
 Rydberg constant [1/m]                                     1.09737315685270E+07
 Avogrado constant [1/mol]                                  6.02214179000000E+23
 Boltzmann constant [J/K]                                   1.38065040000000E-23
 Atomic mass unit [kg]                                      1.66053878200000E-27
 Bohr radius [m]                                            5.29177208590000E-11

 *** Conversion factors ***

 [u] -> [a.u.]                                              1.82288848426455E+03
 [Angstrom] -> [Bohr] = [a.u.]                              1.88972613288564E+00
 [a.u.] = [Bohr] -> [Angstrom]                              5.29177208590000E-01
 [a.u.] -> [s]                                              2.41888432650478E-17
 [a.u.] -> [fs]                                             2.41888432650478E-02
 [a.u.] -> [J]                                              4.35974393937059E-18
 [a.u.] -> [K]                                              3.15774647902944E+05
 [a.u.] -> [kJ/mol]                                         2.62549961709828E+03
 [a.u.] -> [kcal/mol]                                       6.27509468713739E+02
 [a.u.] -> [Pa]                                             2.94210107994716E+13
 [a.u.] -> [bar]                                            2.94210107994716E+08
 [a.u.] -> [atm]                                            2.90362800883016E+08
 [a.u.] -> [eV]                                             2.72113838565563E+01
 [a.u.] -> [Hz]                                             6.57968392072181E+15
 [a.u.] -> [1/cm] (wave numbers)                            2.19474631370540E+05
 [a.u./Bohr**2] -> [1/cm]                                   5.14048714338585E+03
 


                           ****  ******  ****   ****   
                          **  ** ****** **  ** ******  
                          ******   **   **  ** **  **  
                          **  **   **    ****  **  **  
                                                       
                             University of Zurich      
                                    2009               
                                                       
                                 Version 0.0           
                                                                   


 Atomic Energy Calculation             Aluminium [Al]        Atomic number:   13


 METHOD    | Restricted Kohn-Sham Calculation
 METHOD    | Relativistic Calculation using Douglas-Kroll 2nd order
 FUNCTIONAL| ROUTINE=NEW
 FUNCTIONAL| BECKE88:
 FUNCTIONAL| A. Becke, Phys. Rev. A 38, 3098 (1988) {LDA version}
 FUNCTIONAL| P86C:
 FUNCTIONAL| J. P. Perdew, Phys. Rev. B, 33, 8822 (1986) {LDA version}
 CAW:  DKH2 with even2c (Alex)
 !JT:  Now available in cp2k
 CAW:  DKH2 with even2c (Alex)
 !JT:  Now available in cp2k
 CAW:  DKH2 with even2c (Alex)
 !JT:  Now available in cp2k
 CAW:  DKH2 with even2c (Alex)
 !JT:  Now available in cp2k


 Electronic structure 
    Total number of core electrons                                          0.00
    Total number of valence electrons                                      13.00
    Total number of electrons                                              13.00
    S      2.00  2.00  2.00
    P      6.00  1.00


 *******************************************************************************
                  Iteration          Convergence                     Energy [au]
 *******************************************************************************
                          1        0.268012E+54             ********************
                          2        0.197783E+16             ********************
                          3        0.726207E+34             ********************
                          4        0.282346E+39             ********************
                          5         0.00000                                 +Inf

 Energy components [Hartree]           Total Energy ::                      +Inf
                                        Band Energy ::      ********************
                                     Kinetic Energy ::       872038.358451666543
                                        Core Energy ::       190731.185500381864
                                          XC Energy ::                      +Inf
                                     Coulomb Energy ::          951.748017867369
                                 HF Exchange Energy ::            0.000000000000

 Orbital energies  State     L     Occupation   Energy[a.u.]          Energy[eV]

                       1     0          2.000***************     ***************
                       2     0          2.000***************     ***************
                       3     0          2.000***************     ***************

                       1     1          6.000***************     ***************
                       2     1          1.000***************     ***************



                             NORMAL TERMINATION OF     
                                                       
                           ****  ******  ****   ****   
                          **  ** ****** **  ** ******  
                          ******   **   **  ** **  **  
                          **  **   **    ****  **  **  


 -------------------------------------------------------------------------------
 -                                                                             -
 -                           R E F E R E N C E S                               -
 -                                                                             -
 -------------------------------------------------------------------------------
 
 CP2K version 2.0.1 (Development Version), the CP2K developers group (2009).
 CP2K is freely available from http://cp2k.berlios.de/ .

 Frigo, M; Johnson, SG. 
 PROCEEDINGS OF THE IEEE, 93 (2), 216-231 (2005). 
 The design and implementation of FFTW3.
 http://dx.doi.org/10.1109/JPROC.2004.840301


 BECKE, AD. PHYSICAL REVIEW A, 38 (6), 3098-3100 (1988). 
 DENSITY-FUNCTIONAL EXCHANGE-ENERGY APPROXIMATION WITH CORRECT
 ASYMPTOTIC-BEHAVIOR.
 http://dx.doi.org/10.1103/PhysRevA.38.3098


 PERDEW, JP; ZUNGER, A. 
 PHYSICAL REVIEW B, 23 (10), 5048-5079 (1981). 
 SELF-INTERACTION CORRECTION TO DENSITY-FUNCTIONAL APPROXIMATIONS FOR
 MANY-ELECTRON SYSTEMS.
 http://dx.doi.org/10.1103/PhysRevB.23.5048


 -------------------------------------------------------------------------------
 -                                                                             -
 -                                T I M I N G                                  -
 -                                                                             -
 -------------------------------------------------------------------------------
 SUBROUTINE                      CALLS  ASD          SELF TIME        TOTAL TIME
                                              AVERAGE  MAXIMUM  AVERAGE  MAXIMUM
 CP2K                                1  1.0      0.00     0.00     0.34     0.34
 atom_code                           1  2.0      0.00     0.00     0.34     0.34
 atom_energy                         1  3.0      0.01     0.01     0.34     0.34
 calculate_atom                      1  4.0      0.10     0.10     0.30     0.30
 calculate_atom_vxc                  5  5.0      0.20     0.20     0.20     0.20
 atom_relint_setup                   1  4.0      0.02     0.02     0.02     0.02
 atom_int_setup                      1  4.0      0.01     0.01     0.01     0.01
 -------------------------------------------------------------------------------

  **** **** ******  **  PROGRAM ENDED AT                     20090316 124143.279
 ***** ** ***  *** **   PROGRAM RAN ON                                  pcihopt3
 **    ****   ******    PROGRAM RAN BY                                    hutter
 ***** **    ** ** **   PROGRAM PROCESS ID                                  2348
  **** **  *******  **  PROGRAM STARTED IN /data03/hutter/cp2k/tests/ATOM/regtes
                                           t-1
 hutter@pcihopt3 has created process number                          0      2355

  **** **** ******  **  PROGRAM STARTED AT                   20090316 124143.387
 ***** ** ***  *** **   PROGRAM STARTED ON                              pcihopt3
 **    ****   ******    PROGRAM STARTED BY                                hutter
 ***** **    ** ** **   PROGRAM PROCESS ID                                  2355
  **** **  *******  **  PROGRAM STARTED IN /data03/hutter/cp2k/tests/ATOM/regtes
                                           t-1

 CP2K| version string:                  CP2K version 2.0.1 (Development Version)
 CP2K| is freely available from                          http://cp2k.berlios.de/
 CP2K| Program compiled at                          Sat Mar 14 16:08:29 CET 2009
 CP2K| Program compiled on                                              pcihopt3
 CP2K| Program compiled for                                     Linux-x86-64-g95
 CP2K| Last CVS entry               qs_spin_orbit.F/1.1/Fri Mar 13 15:32:59 2009
 CP2K| Input file name                                                    Am.inp

 GLOBAL| Method name                                                        ATOM
 GLOBAL| Project name                                                    PROJECT
 GLOBAL| Preferred FFT library                                             FFTW3
 GLOBAL| Run type                                                   ENERGY_FORCE
 GLOBAL| All-to-all communication in single precision                          F
 GLOBAL| FFTs using library dependent lengths                                  F
 GLOBAL| Global print level                                                    2
 GLOBAL| Total number of message passing processes                             1
 GLOBAL| Number of threads for this process                                    1
 GLOBAL| This output is from process                                           0


 *** Fundamental physical constants (SI units) ***

 *** Literature: B. J. Mohr and B. N. Taylor,
 ***             CODATA recommended values of the fundamental physical
 ***             constants: 2006, Web Version 5.1
 ***             http://physics.nist.gov/constants

 Speed of light in vacuum [m/s]                             2.99792458000000E+08
 Magnetic constant or permeability of vacuum [N/A**2]       1.25663706143592E-06
 Electric constant or permittivity of vacuum [F/m]          8.85418781762039E-12
 Planck constant (h) [J*s]                                  6.62606896000000E-34
 Planck constant (h-bar) [J*s]                              1.05457162825177E-34
 Elementary charge [C]                                      1.60217648700000E-19
 Electron mass [kg]                                         9.10938215000000E-31
 Electron g factor [ ]                                     -2.00231930436220E+00
 Fine-structure constant                                    7.29735253760000E-03
 Rydberg constant [1/m]                                     1.09737315685270E+07
 Avogrado constant [1/mol]                                  6.02214179000000E+23
 Boltzmann constant [J/K]                                   1.38065040000000E-23
 Atomic mass unit [kg]                                      1.66053878200000E-27
 Bohr radius [m]                                            5.29177208590000E-11

 *** Conversion factors ***

 [u] -> [a.u.]                                              1.82288848426455E+03
 [Angstrom] -> [Bohr] = [a.u.]                              1.88972613288564E+00
 [a.u.] = [Bohr] -> [Angstrom]                              5.29177208590000E-01
 [a.u.] -> [s]                                              2.41888432650478E-17
 [a.u.] -> [fs]                                             2.41888432650478E-02
 [a.u.] -> [J]                                              4.35974393937059E-18
 [a.u.] -> [K]                                              3.15774647902944E+05
 [a.u.] -> [kJ/mol]                                         2.62549961709828E+03
 [a.u.] -> [kcal/mol]                                       6.27509468713739E+02
 [a.u.] -> [Pa]                                             2.94210107994716E+13
 [a.u.] -> [bar]                                            2.94210107994716E+08
 [a.u.] -> [atm]                                            2.90362800883016E+08
 [a.u.] -> [eV]                                             2.72113838565563E+01
 [a.u.] -> [Hz]                                             6.57968392072181E+15
 [a.u.] -> [1/cm] (wave numbers)                            2.19474631370540E+05
 [a.u./Bohr**2] -> [1/cm]                                   5.14048714338585E+03
 


                           ****  ******  ****   ****   
                          **  ** ****** **  ** ******  
                          ******   **   **  ** **  **  
                          **  **   **    ****  **  **  
                                                       
                             University of Zurich      
                                    2009               
                                                       
                                 Version 0.0           
                                                                   


 Atomic Energy Calculation             Americum [Am]         Atomic number:   95


 METHOD    | Restricted Kohn-Sham Calculation
 METHOD    | Relativistic Calculation using Douglas-Kroll 3rd order
 FUNCTIONAL| ROUTINE=NEW
 FUNCTIONAL| HCTH:
 FUNCTIONAL| A. D. Boese, N. L. Doltsinis, N. C. Handy, and M. Sprik, J. Chem. P
 FUNCTIONAL| hys. 112, 1670 (2000); HCTH/120 xc functional {LDA version}
 CAW:  DKH2 with even2c (Alex)
 !JT:  Now available in cp2k
 CAW:  DKH3 with even3b (Alex)
 JT:  Now available in cp2k
 CAW:  DKH2 with even2c (Alex)
 !JT:  Now available in cp2k
 CAW:  DKH3 with even3b (Alex)
 JT:  Now available in cp2k
 CAW:  DKH2 with even2c (Alex)
 !JT:  Now available in cp2k
 CAW:  DKH3 with even3b (Alex)
 JT:  Now available in cp2k
 CAW:  DKH2 with even2c (Alex)
 !JT:  Now available in cp2k
 CAW:  DKH3 with even3b (Alex)
 JT:  Now available in cp2k


 Electronic structure 
    Total number of core electrons                                          0.00
    Total number of valence electrons                                      95.00
    Total number of electrons                                              95.00
    S      2.00  2.00  2.00  2.00  2.00  2.00  2.00
    P      6.00  6.00  6.00  6.00  6.00
    D     10.00 10.00 10.00
    F     14.00  7.00


 *******************************************************************************
                  Iteration          Convergence                     Energy [au]
 *******************************************************************************
                          1         293.447                  -28991.949306716033
                          2         117.187                  -27396.970222213728
                          3         176.042                  -29595.285362307532
                          4         33.5510                  -30199.435496671769
                          5         5.90896                  -30235.140726884361
                          6         4.57497                  -30245.263044884825
                          7        0.635309                  -30253.784886117104
                          8         2.54652                  -30235.815810077551
                          9        0.353382                  -30254.120223356116
                         10        0.200725                  -30254.186299292509
                         11        0.259120E-01              -30254.212944649953
                         12        0.615329E-02              -30254.213747329977
                         13        0.813675E-03              -30254.213779765178
                         14        0.394909E-04              -30254.213780395716
                         15        0.134801E-05              -30254.213780396691
                         16        0.223135E-06              -30254.213780396614

 Energy components [Hartree]           Total Energy ::       -30254.213780396614
                                        Band Energy ::       -19162.273274741132
                                     Kinetic Energy ::        52470.007257178906
                                        Core Energy ::       -40992.984663108648
                                          XC Energy ::         -526.586372489067
                                     Coulomb Energy ::        11265.357255201099
                                 HF Exchange Energy ::            0.000000000000

 Orbital energies  State     L     Occupation   Energy[a.u.]          Energy[eV]

                       1     0          2.000   -4574.763849      -124485.655158
                       2     0          2.000    -869.255183       -23653.636442
                       3     0          2.000    -222.360969        -6050.749689
                       4     0          2.000     -57.804192        -1572.932045
                       5     0          2.000     -13.018995         -354.264864
                       6     0          2.000      -1.875845          -51.044342
                       7     0          2.000      -0.149890           -4.078717

                       1     1          6.000    -716.010191       -19483.628145
                       2     1          6.000    -179.721330        -4890.466102
                       3     1          6.000     -43.820379        -1192.413166
                       4     1          6.000      -8.611760         -234.337911
                       5     1          6.000      -0.850465          -23.142319

                       1     2         10.000    -142.387693        -3874.566161
                       2     2         10.000     -29.584435         -805.033415
                       3     2         10.000      -3.974230         -108.144304

                       1     3         14.000     -16.379019         -445.695774
                       2     3          7.000      -0.137262           -3.735089



                             NORMAL TERMINATION OF     
                                                       
                           ****  ******  ****   ****   
                          **  ** ****** **  ** ******  
                          ******   **   **  ** **  **  
                          **  **   **    ****  **  **  


 -------------------------------------------------------------------------------
 -                                                                             -
 -                           R E F E R E N C E S                               -
 -                                                                             -
 -------------------------------------------------------------------------------
 
 CP2K version 2.0.1 (Development Version), the CP2K developers group (2009).
 CP2K is freely available from http://cp2k.berlios.de/ .

 Frigo, M; Johnson, SG. 
 PROCEEDINGS OF THE IEEE, 93 (2), 216-231 (2005). 
 The design and implementation of FFTW3.
 http://dx.doi.org/10.1109/JPROC.2004.840301


 -------------------------------------------------------------------------------
 -                                                                             -
 -                                T I M I N G                                  -
 -                                                                             -
 -------------------------------------------------------------------------------
 SUBROUTINE                      CALLS  ASD          SELF TIME        TOTAL TIME
                                              AVERAGE  MAXIMUM  AVERAGE  MAXIMUM
 CP2K                                1  1.0      0.00     0.00     1.40     1.40
 atom_code                           1  2.0      0.00     0.00     1.40     1.40
 atom_energy                         1  3.0      0.01     0.01     1.40     1.40
 calculate_atom                      1  4.0      0.42     0.42     1.36     1.36
 calculate_atom_vxc                 16  5.0      0.93     0.93     0.94     0.94
 -------------------------------------------------------------------------------

  **** **** ******  **  PROGRAM ENDED AT                     20090316 124144.787
 ***** ** ***  *** **   PROGRAM RAN ON                                  pcihopt3
 **    ****   ******    PROGRAM RAN BY                                    hutter
 ***** **    ** ** **   PROGRAM PROCESS ID                                  2355
  **** **  *******  **  PROGRAM STARTED IN /data03/hutter/cp2k/tests/ATOM/regtes
                                           t-1
 hutter@pcihopt3 has created process number                          0      2387

  **** **** ******  **  PROGRAM STARTED AT                   20090316 124144.903
 ***** ** ***  *** **   PROGRAM STARTED ON                              pcihopt3
 **    ****   ******    PROGRAM STARTED BY                                hutter
 ***** **    ** ** **   PROGRAM PROCESS ID                                  2387
  **** **  *******  **  PROGRAM STARTED IN /data03/hutter/cp2k/tests/ATOM/regtes
                                           t-1

 CP2K| version string:                  CP2K version 2.0.1 (Development Version)
 CP2K| is freely available from                          http://cp2k.berlios.de/
 CP2K| Program compiled at                          Sat Mar 14 16:08:29 CET 2009
 CP2K| Program compiled on                                              pcihopt3
 CP2K| Program compiled for                                     Linux-x86-64-g95
 CP2K| Last CVS entry               qs_spin_orbit.F/1.1/Fri Mar 13 15:32:59 2009
 CP2K| Input file name                                                    Ar.inp

 GLOBAL| Method name                                                        ATOM
 GLOBAL| Project name                                                    PROJECT
 GLOBAL| Preferred FFT library                                             FFTW3
 GLOBAL| Run type                                                   ENERGY_FORCE
 GLOBAL| All-to-all communication in single precision                          F
 GLOBAL| FFTs using library dependent lengths                                  F
 GLOBAL| Global print level                                                    2
 GLOBAL| Total number of message passing processes                             1
 GLOBAL| Number of threads for this process                                    1
 GLOBAL| This output is from process                                           0


 *** Fundamental physical constants (SI units) ***

 *** Literature: B. J. Mohr and B. N. Taylor,
 ***             CODATA recommended values of the fundamental physical
 ***             constants: 2006, Web Version 5.1
 ***             http://physics.nist.gov/constants

 Speed of light in vacuum [m/s]                             2.99792458000000E+08
 Magnetic constant or permeability of vacuum [N/A**2]       1.25663706143592E-06
 Electric constant or permittivity of vacuum [F/m]          8.85418781762039E-12
 Planck constant (h) [J*s]                                  6.62606896000000E-34
 Planck constant (h-bar) [J*s]                              1.05457162825177E-34
 Elementary charge [C]                                      1.60217648700000E-19
 Electron mass [kg]                                         9.10938215000000E-31
 Electron g factor [ ]                                     -2.00231930436220E+00
 Fine-structure constant                                    7.29735253760000E-03
 Rydberg constant [1/m]                                     1.09737315685270E+07
 Avogrado constant [1/mol]                                  6.02214179000000E+23
 Boltzmann constant [J/K]                                   1.38065040000000E-23
 Atomic mass unit [kg]                                      1.66053878200000E-27
 Bohr radius [m]                                            5.29177208590000E-11

 *** Conversion factors ***

 [u] -> [a.u.]                                              1.82288848426455E+03
 [Angstrom] -> [Bohr] = [a.u.]                              1.88972613288564E+00
 [a.u.] = [Bohr] -> [Angstrom]                              5.29177208590000E-01
 [a.u.] -> [s]                                              2.41888432650478E-17
 [a.u.] -> [fs]                                             2.41888432650478E-02
 [a.u.] -> [J]                                              4.35974393937059E-18
 [a.u.] -> [K]                                              3.15774647902944E+05
 [a.u.] -> [kJ/mol]                                         2.62549961709828E+03
 [a.u.] -> [kcal/mol]                                       6.27509468713739E+02
 [a.u.] -> [Pa]                                             2.94210107994716E+13
 [a.u.] -> [bar]                                            2.94210107994716E+08
 [a.u.] -> [atm]                                            2.90362800883016E+08
 [a.u.] -> [eV]                                             2.72113838565563E+01
 [a.u.] -> [Hz]                                             6.57968392072181E+15
 [a.u.] -> [1/cm] (wave numbers)                            2.19474631370540E+05
 [a.u./Bohr**2] -> [1/cm]                                   5.14048714338585E+03
 


                           ****  ******  ****   ****   
                          **  ** ****** **  ** ******  
                          ******   **   **  ** **  **  
                          **  **   **    ****  **  **  
                                                       
                             University of Zurich      
                                    2009               
                                                       
                                 Version 0.0           
                                                                   


 Atomic Energy Calculation             Argon [Ar]            Atomic number:   18


 METHOD    | Restricted Kohn-Sham Calculation
 METHOD    | Nonrelativistic Calculation
 FUNCTIONAL| ROUTINE=NEW
 FUNCTIONAL| LYP:
 FUNCTIONAL| C. Lee, W. Yang, R.G. Parr, Phys. Rev. B, 37, 785 (1988) {LDA versi
 FUNCTIONAL| on}
 FUNCTIONAL| OPTX:
 FUNCTIONAL| OPTX, Handy NC and Cohen AJ,  JCP 116, p. 5411 (2002) (LDA)


 Electronic structure 
    Total number of core electrons                                          0.00
    Total number of valence electrons                                      18.00
    Total number of electrons                                              18.00
    S      2.00  2.00  2.00
    P      6.00  6.00


 *******************************************************************************
                  Iteration          Convergence                     Energy [au]
 *******************************************************************************
                          1         9.12752                    -517.078272922986
                          2         4.74951                    -512.530988591889
                          3         1.30385                    -525.484514346458
                          4        0.384881                    -526.521136045700
                          5        0.104263E-01                -526.653198869392
                          6        0.257699E-02                -526.653299334472
                          7        0.361878E-03                -526.653304481862
                          8        0.346587E-05                -526.653304597507
                          9        0.188027E-07                -526.653304597516

 Energy components [Hartree]           Total Energy ::         -526.653304597516
                                        Band Energy ::         -304.656051220818
                                     Kinetic Energy ::          526.109557298051
                                        Core Energy ::         -728.506778408126
                                          XC Energy ::          -30.038839669360
                                     Coulomb Energy ::          231.892313479970
                                 HF Exchange Energy ::            0.000000000000

 Orbital energies  State     L     Occupation   Energy[a.u.]          Energy[eV]

                       1     0          2.000    -114.012023        -3102.424932
                       2     0          2.000     -10.836619         -294.879412
                       3     0          2.000      -0.884705          -24.074057

                       1     1          6.000      -8.483225         -230.840285
                       2     1          6.000      -0.381668          -10.385706



                             NORMAL TERMINATION OF     
                                                       
                           ****  ******  ****   ****   
                          **  ** ****** **  ** ******  
                          ******   **   **  ** **  **  
                          **  **   **    ****  **  **  


 -------------------------------------------------------------------------------
 -                                                                             -
 -                           R E F E R E N C E S                               -
 -                                                                             -
 -------------------------------------------------------------------------------
 
 CP2K version 2.0.1 (Development Version), the CP2K developers group (2009).
 CP2K is freely available from http://cp2k.berlios.de/ .

 Frigo, M; Johnson, SG. 
 PROCEEDINGS OF THE IEEE, 93 (2), 216-231 (2005). 
 The design and implementation of FFTW3.
 http://dx.doi.org/10.1109/JPROC.2004.840301


 LEE, CT; YANG, WT; PARR, RG. 
 PHYSICAL REVIEW B, 37 (2), 785-789 (1988). 
 DEVELOPMENT OF THE COLLE-SALVETTI CORRELATION-ENERGY FORMULA INTO A
 FUNCTIONAL OF THE ELECTRON-DENSITY.
 http://dx.doi.org/10.1103/PhysRevB.37.785


 -------------------------------------------------------------------------------
 -                                                                             -
 -                                T I M I N G                                  -
 -                                                                             -
 -------------------------------------------------------------------------------
 SUBROUTINE                      CALLS  ASD          SELF TIME        TOTAL TIME
                                              AVERAGE  MAXIMUM  AVERAGE  MAXIMUM
 CP2K                                1  1.0      0.00     0.00     0.56     0.56
 atom_code                           1  2.0      0.00     0.00     0.56     0.56
 atom_energy                         1  3.0      0.01     0.01     0.56     0.56
 calculate_atom                      1  4.0      0.18     0.18     0.54     0.54
 calculate_atom_vxc                  9  5.0      0.36     0.36     0.36     0.36
 -------------------------------------------------------------------------------

  **** **** ******  **  PROGRAM ENDED AT                     20090316 124145.464
 ***** ** ***  *** **   PROGRAM RAN ON                                  pcihopt3
 **    ****   ******    PROGRAM RAN BY                                    hutter
 ***** **    ** ** **   PROGRAM PROCESS ID                                  2387
  **** **  *******  **  PROGRAM STARTED IN /data03/hutter/cp2k/tests/ATOM/regtes
                                           t-1
 hutter@pcihopt3 has created process number                          0      2395

  **** **** ******  **  PROGRAM STARTED AT                   20090316 124145.580
 ***** ** ***  *** **   PROGRAM STARTED ON                              pcihopt3
 **    ****   ******    PROGRAM STARTED BY                                hutter
 ***** **    ** ** **   PROGRAM PROCESS ID                                  2395
  **** **  *******  **  PROGRAM STARTED IN /data03/hutter/cp2k/tests/ATOM/regtes
                                           t-1

 CP2K| version string:                  CP2K version 2.0.1 (Development Version)
 CP2K| is freely available from                          http://cp2k.berlios.de/
 CP2K| Program compiled at                          Sat Mar 14 16:08:29 CET 2009
 CP2K| Program compiled on                                              pcihopt3
 CP2K| Program compiled for                                     Linux-x86-64-g95
 CP2K| Last CVS entry               qs_spin_orbit.F/1.1/Fri Mar 13 15:32:59 2009
 CP2K| Input file name                                                    As.inp

 GLOBAL| Method name                                                        ATOM
 GLOBAL| Project name                                                    PROJECT
 GLOBAL| Preferred FFT library                                             FFTW3
 GLOBAL| Run type                                                   ENERGY_FORCE
 GLOBAL| All-to-all communication in single precision                          F
 GLOBAL| FFTs using library dependent lengths                                  F
 GLOBAL| Global print level                                                    2
 GLOBAL| Total number of message passing processes                             1
 GLOBAL| Number of threads for this process                                    1
 GLOBAL| This output is from process                                           0


 *** Fundamental physical constants (SI units) ***

 *** Literature: B. J. Mohr and B. N. Taylor,
 ***             CODATA recommended values of the fundamental physical
 ***             constants: 2006, Web Version 5.1
 ***             http://physics.nist.gov/constants

 Speed of light in vacuum [m/s]                             2.99792458000000E+08
 Magnetic constant or permeability of vacuum [N/A**2]       1.25663706143592E-06
 Electric constant or permittivity of vacuum [F/m]          8.85418781762039E-12
 Planck constant (h) [J*s]                                  6.62606896000000E-34
 Planck constant (h-bar) [J*s]                              1.05457162825177E-34
 Elementary charge [C]                                      1.60217648700000E-19
 Electron mass [kg]                                         9.10938215000000E-31
 Electron g factor [ ]                                     -2.00231930436220E+00
 Fine-structure constant                                    7.29735253760000E-03
 Rydberg constant [1/m]                                     1.09737315685270E+07
 Avogrado constant [1/mol]                                  6.02214179000000E+23
 Boltzmann constant [J/K]                                   1.38065040000000E-23
 Atomic mass unit [kg]                                      1.66053878200000E-27
 Bohr radius [m]                                            5.29177208590000E-11

 *** Conversion factors ***

 [u] -> [a.u.]                                              1.82288848426455E+03
 [Angstrom] -> [Bohr] = [a.u.]                              1.88972613288564E+00
 [a.u.] = [Bohr] -> [Angstrom]                              5.29177208590000E-01
 [a.u.] -> [s]                                              2.41888432650478E-17
 [a.u.] -> [fs]                                             2.41888432650478E-02
 [a.u.] -> [J]                                              4.35974393937059E-18
 [a.u.] -> [K]                                              3.15774647902944E+05
 [a.u.] -> [kJ/mol]                                         2.62549961709828E+03
 [a.u.] -> [kcal/mol]                                       6.27509468713739E+02
 [a.u.] -> [Pa]                                             2.94210107994716E+13
 [a.u.] -> [bar]                                            2.94210107994716E+08
 [a.u.] -> [atm]                                            2.90362800883016E+08
 [a.u.] -> [eV]                                             2.72113838565563E+01
 [a.u.] -> [Hz]                                             6.57968392072181E+15
 [a.u.] -> [1/cm] (wave numbers)                            2.19474631370540E+05
 [a.u./Bohr**2] -> [1/cm]                                   5.14048714338585E+03
 


                           ****  ******  ****   ****   
                          **  ** ****** **  ** ******  
                          ******   **   **  ** **  **  
                          **  **   **    ****  **  **  
                                                       
                             University of Zurich      
                                    2009               
                                                       
                                 Version 0.0           
                                                                   


 Atomic Energy Calculation             Arsenic [As]          Atomic number:   33


 METHOD    | Restricted Kohn-Sham Calculation
 METHOD    | Relativistic Calculation using Douglas-Kroll 3rd order
 FUNCTIONAL| ROUTINE=NEW
 FUNCTIONAL| BECKE88:
 FUNCTIONAL| A. Becke, Phys. Rev. A 38, 3098 (1988) {LDA version}
 FUNCTIONAL| LYP:
 FUNCTIONAL| C. Lee, W. Yang, R.G. Parr, Phys. Rev. B, 37, 785 (1988) {LDA versi
 FUNCTIONAL| on}
 CAW:  DKH2 with even2c (Alex)
 !JT:  Now available in cp2k
 CAW:  DKH3 with even3b (Alex)
 JT:  Now available in cp2k
 CAW:  DKH2 with even2c (Alex)
 !JT:  Now available in cp2k
 CAW:  DKH3 with even3b (Alex)
 JT:  Now available in cp2k
 CAW:  DKH2 with even2c (Alex)
 !JT:  Now available in cp2k
 CAW:  DKH3 with even3b (Alex)
 JT:  Now available in cp2k
 CAW:  DKH2 with even2c (Alex)
 !JT:  Now available in cp2k
 CAW:  DKH3 with even3b (Alex)
 JT:  Now available in cp2k


 Electronic structure 
    Total number of core electrons                                          0.00
    Total number of valence electrons                                      33.00
    Total number of electrons                                              33.00
    S      2.00  2.00  2.00  2.00
    P      6.00  6.00  3.00
    D     10.00


 *******************************************************************************
                  Iteration          Convergence                     Energy [au]
 *******************************************************************************
                          1         50.3659                   -2148.761992889376
                          2         15.0675                   -1989.854429594932
                          3         26.7982                   -2203.195780718634
                          4         15.9927                   -2234.018377317766
                          5         9.47093                   -2250.934914702371
                          6        0.972379                   -2260.390699733408
                          7        0.110800                   -2260.615462893241
                          8        0.187478E-01               -2260.620355541791
                          9        0.143267E-02               -2260.620606113210
                         10        0.237653E-03               -2260.620610705952
                         11        0.882432E-05               -2260.620610759574
                         12        0.277882E-06               -2260.620610759644

 Energy components [Hartree]           Total Energy ::        -2260.620610759644
                                        Band Energy ::        -1317.165921496085
                                     Kinetic Energy ::         2407.881205426657
                                        Core Energy ::        -3144.710662536697
                                          XC Energy ::          -84.376628543231
                                     Coulomb Energy ::          968.466680320284
                                 HF Exchange Energy ::            0.000000000000

 Orbital energies  State     L     Occupation   Energy[a.u.]          Energy[eV]

                       1     0          2.000    -430.319335       -11709.584613
                       2     0          2.000     -54.612740        -1486.088235
                       3     0          2.000      -6.984648         -190.061935
                       4     0          2.000      -0.530093          -14.424565

                       1     1          6.000     -47.901041        -1303.453607
                       2     1          6.000      -4.907147         -133.530251
                       3     1          3.000      -0.186294           -5.069314

                       1     2         10.000      -1.486428          -40.447771



                             NORMAL TERMINATION OF     
                                                       
                           ****  ******  ****   ****   
                          **  ** ****** **  ** ******  
                          ******   **   **  ** **  **  
                          **  **   **    ****  **  **  


 -------------------------------------------------------------------------------
 -                                                                             -
 -                           R E F E R E N C E S                               -
 -                                                                             -
 -------------------------------------------------------------------------------
 
 CP2K version 2.0.1 (Development Version), the CP2K developers group (2009).
 CP2K is freely available from http://cp2k.berlios.de/ .

 Frigo, M; Johnson, SG. 
 PROCEEDINGS OF THE IEEE, 93 (2), 216-231 (2005). 
 The design and implementation of FFTW3.
 http://dx.doi.org/10.1109/JPROC.2004.840301


 BECKE, AD. PHYSICAL REVIEW A, 38 (6), 3098-3100 (1988). 
 DENSITY-FUNCTIONAL EXCHANGE-ENERGY APPROXIMATION WITH CORRECT
 ASYMPTOTIC-BEHAVIOR.
 http://dx.doi.org/10.1103/PhysRevA.38.3098


 LEE, CT; YANG, WT; PARR, RG. 
 PHYSICAL REVIEW B, 37 (2), 785-789 (1988). 
 DEVELOPMENT OF THE COLLE-SALVETTI CORRELATION-ENERGY FORMULA INTO A
 FUNCTIONAL OF THE ELECTRON-DENSITY.
 http://dx.doi.org/10.1103/PhysRevB.37.785


 -------------------------------------------------------------------------------
 -                                                                             -
 -                                T I M I N G                                  -
 -                                                                             -
 -------------------------------------------------------------------------------
 SUBROUTINE                      CALLS  ASD          SELF TIME        TOTAL TIME
                                              AVERAGE  MAXIMUM  AVERAGE  MAXIMUM
 CP2K                                1  1.0      0.00     0.00     0.91     0.91
 atom_code                           1  2.0      0.00     0.00     0.91     0.91
 atom_energy                         1  3.0      0.01     0.01     0.91     0.91
 calculate_atom                      1  4.0      0.27     0.27     0.87     0.87
 calculate_atom_vxc                 12  5.0      0.59     0.59     0.60     0.60
 atom_relint_setup                   1  4.0      0.02     0.02     0.02     0.02
 -------------------------------------------------------------------------------

  **** **** ******  **  PROGRAM ENDED AT                     20090316 124146.495
 ***** ** ***  *** **   PROGRAM RAN ON                                  pcihopt3
 **    ****   ******    PROGRAM RAN BY                                    hutter
 ***** **    ** ** **   PROGRAM PROCESS ID                                  2395
  **** **  *******  **  PROGRAM STARTED IN /data03/hutter/cp2k/tests/ATOM/regtes
                                           t-1
 hutter@pcihopt3 has created process number                          0      2400

  **** **** ******  **  PROGRAM STARTED AT                   20090316 124146.608
 ***** ** ***  *** **   PROGRAM STARTED ON                              pcihopt3
 **    ****   ******    PROGRAM STARTED BY                                hutter
 ***** **    ** ** **   PROGRAM PROCESS ID                                  2400
  **** **  *******  **  PROGRAM STARTED IN /data03/hutter/cp2k/tests/ATOM/regtes
                                           t-1

 CP2K| version string:                  CP2K version 2.0.1 (Development Version)
 CP2K| is freely available from                          http://cp2k.berlios.de/
 CP2K| Program compiled at                          Sat Mar 14 16:08:29 CET 2009
 CP2K| Program compiled on                                              pcihopt3
 CP2K| Program compiled for                                     Linux-x86-64-g95
 CP2K| Last CVS entry               qs_spin_orbit.F/1.1/Fri Mar 13 15:32:59 2009
 CP2K| Input file name                                                    At.inp

 GLOBAL| Method name                                                        ATOM
 GLOBAL| Project name                                                    PROJECT
 GLOBAL| Preferred FFT library                                             FFTW3
 GLOBAL| Run type                                                   ENERGY_FORCE
 GLOBAL| All-to-all communication in single precision                          F
 GLOBAL| FFTs using library dependent lengths                                  F
 GLOBAL| Global print level                                                    2
 GLOBAL| Total number of message passing processes                             1
 GLOBAL| Number of threads for this process                                    1
 GLOBAL| This output is from process                                           0


 *** Fundamental physical constants (SI units) ***

 *** Literature: B. J. Mohr and B. N. Taylor,
 ***             CODATA recommended values of the fundamental physical
 ***             constants: 2006, Web Version 5.1
 ***             http://physics.nist.gov/constants

 Speed of light in vacuum [m/s]                             2.99792458000000E+08
 Magnetic constant or permeability of vacuum [N/A**2]       1.25663706143592E-06
 Electric constant or permittivity of vacuum [F/m]          8.85418781762039E-12
 Planck constant (h) [J*s]                                  6.62606896000000E-34
 Planck constant (h-bar) [J*s]                              1.05457162825177E-34
 Elementary charge [C]                                      1.60217648700000E-19
 Electron mass [kg]                                         9.10938215000000E-31
 Electron g factor [ ]                                     -2.00231930436220E+00
 Fine-structure constant                                    7.29735253760000E-03
 Rydberg constant [1/m]                                     1.09737315685270E+07
 Avogrado constant [1/mol]                                  6.02214179000000E+23
 Boltzmann constant [J/K]                                   1.38065040000000E-23
 Atomic mass unit [kg]                                      1.66053878200000E-27
 Bohr radius [m]                                            5.29177208590000E-11

 *** Conversion factors ***

 [u] -> [a.u.]                                              1.82288848426455E+03
 [Angstrom] -> [Bohr] = [a.u.]                              1.88972613288564E+00
 [a.u.] = [Bohr] -> [Angstrom]                              5.29177208590000E-01
 [a.u.] -> [s]                                              2.41888432650478E-17
 [a.u.] -> [fs]                                             2.41888432650478E-02
 [a.u.] -> [J]                                              4.35974393937059E-18
 [a.u.] -> [K]                                              3.15774647902944E+05
 [a.u.] -> [kJ/mol]                                         2.62549961709828E+03
 [a.u.] -> [kcal/mol]                                       6.27509468713739E+02
 [a.u.] -> [Pa]                                             2.94210107994716E+13
 [a.u.] -> [bar]                                            2.94210107994716E+08
 [a.u.] -> [atm]                                            2.90362800883016E+08
 [a.u.] -> [eV]                                             2.72113838565563E+01
 [a.u.] -> [Hz]                                             6.57968392072181E+15
 [a.u.] -> [1/cm] (wave numbers)                            2.19474631370540E+05
 [a.u./Bohr**2] -> [1/cm]                                   5.14048714338585E+03
 


                           ****  ******  ****   ****   
                          **  ** ****** **  ** ******  
                          ******   **   **  ** **  **  
                          **  **   **    ****  **  **  
                                                       
                             University of Zurich      
                                    2009               
                                                       
                                 Version 0.0           
                                                                   


 Atomic Energy Calculation             Astatine [At]         Atomic number:   85


 METHOD    | Restricted Kohn-Sham Calculation
 METHOD    | Relativistic Calculation using Douglas-Kroll 3rd order
 FUNCTIONAL| ROUTINE=NEW
 FUNCTIONAL| PADE:
 FUNCTIONAL| S. Goedecker, M. Teter and J. Hutter, Phys. Rev. B 54, 1703 (1996)
 CAW:  DKH2 with even2c (Alex)
 !JT:  Now available in cp2k
 CAW:  DKH3 with even3b (Alex)
 JT:  Now available in cp2k
 CAW:  DKH2 with even2c (Alex)
 !JT:  Now available in cp2k
 CAW:  DKH3 with even3b (Alex)
 JT:  Now available in cp2k
 CAW:  DKH2 with even2c (Alex)
 !JT:  Now available in cp2k
 CAW:  DKH3 with even3b (Alex)
 JT:  Now available in cp2k
 CAW:  DKH2 with even2c (Alex)
 !JT:  Now available in cp2k
 CAW:  DKH3 with even3b (Alex)
 JT:  Now available in cp2k


 Electronic structure 
    Total number of core electrons                                          0.00
    Total number of valence electrons                                      85.00
    Total number of electrons                                              85.00
    S      2.00  2.00  2.00  2.00  2.00  2.00
    P      6.00  6.00  6.00  6.00  5.00
    D     10.00 10.00 10.00
    F     14.00


 *******************************************************************************
                  Iteration          Convergence                     Energy [au]
 *******************************************************************************
                          1         197.756                  -21485.177291747801
                          2         45.0347                  -21609.236255218428
                          3         19.7893                  -21771.603523907852
                          4         2.49476                  -21793.889228012766
                          5         2.97273                  -21759.635086281862
                          6         1.00869                  -21794.260084500002
                          7        0.991894                  -21794.260583621188
                          8        0.957541E-01              -21794.400661097538
                          9        0.878158E-02              -21794.402043923346
                         10        0.236147E-01              -21794.401977648500
                         11        0.954849E-02              -21794.402045054241
                         12        0.187545E-02              -21794.402059636075
                         13        0.739286E-04              -21794.402060202057
                         14        0.106479E-05              -21794.402060203072
                         15        0.239963E-05              -21794.402060202989
                         16        0.399918E-05              -21794.402060203036
                         17        0.470908E-06              -21794.402060203047

 Energy components [Hartree]           Total Energy ::       -21794.402060203047
                                        Band Energy ::       -14396.719923360963
                                     Kinetic Energy ::        25402.298792167287
                                        Core Energy ::       -28947.070446128699
                                          XC Energy ::         -364.318783430105
                                     Coulomb Energy ::         7516.987169355759
                                 HF Exchange Energy ::            0.000000000000

[...]
 GLOBAL| This output is from process                                           0


 *** Fundamental physical constants (SI units) ***

 *** Literature: B. J. Mohr and B. N. Taylor,
 ***             CODATA recommended values of the fundamental physical
 ***             constants: 2006, Web Version 5.1
 ***             http://physics.nist.gov/constants

 Speed of light in vacuum [m/s]                             2.99792458000000E+08
 Magnetic constant or permeability of vacuum [N/A**2]       1.25663706143592E-06
 Electric constant or permittivity of vacuum [F/m]          8.85418781762039E-12
 Planck constant (h) [J*s]                                  6.62606896000000E-34
 Planck constant (h-bar) [J*s]                              1.05457162825177E-34
 Elementary charge [C]                                      1.60217648700000E-19
 Electron mass [kg]                                         9.10938215000000E-31
 Electron g factor [ ]                                     -2.00231930436220E+00
 Fine-structure constant                                    7.29735253760000E-03
 Rydberg constant [1/m]                                     1.09737315685270E+07
 Avogrado constant [1/mol]                                  6.02214179000000E+23
 Boltzmann constant [J/K]                                   1.38065040000000E-23
 Atomic mass unit [kg]                                      1.66053878200000E-27
 Bohr radius [m]                                            5.29177208590000E-11

 *** Conversion factors ***

 [u] -> [a.u.]                                              1.82288848426455E+03
 [Angstrom] -> [Bohr] = [a.u.]                              1.88972613288564E+00
 [a.u.] = [Bohr] -> [Angstrom]                              5.29177208590000E-01
 [a.u.] -> [s]                                              2.41888432650478E-17
 [a.u.] -> [fs]                                             2.41888432650478E-02
 [a.u.] -> [J]                                              4.35974393937059E-18
 [a.u.] -> [K]                                              3.15774647902944E+05
 [a.u.] -> [kJ/mol]                                         2.62549961709828E+03
 [a.u.] -> [kcal/mol]                                       6.27509468713739E+02
 [a.u.] -> [Pa]                                             2.94210107994716E+13
 [a.u.] -> [bar]                                            2.94210107994716E+08
 [a.u.] -> [atm]                                            2.90362800883016E+08
 [a.u.] -> [eV]                                             2.72113838565563E+01
 [a.u.] -> [Hz]                                             6.57968392072181E+15
 [a.u.] -> [1/cm] (wave numbers)                            2.19474631370540E+05
 [a.u./Bohr**2] -> [1/cm]                                   5.14048714338585E+03
 


                           ****  ******  ****   ****   
                          **  ** ****** **  ** ******  
                          ******   **   **  ** **  **  
                          **  **   **    ****  **  **  
                                                       
                             University of Zurich      
                                    2009               
                                                       
                                 Version 0.0           
                                                                   


 Atomic Energy Calculation             Zinc [Zn]             Atomic number:   30


 METHOD    | Restricted Hartree-Fock Calculation
 METHOD    | Nonrelativistic Calculation
 FUNCTIONAL| NO EXCHANGE-CORRELATION FUNCTIONAL USED.


 Electronic structure 
    Total number of core electrons                                          0.00
    Total number of valence electrons                                      30.00
    Total number of electrons                                              30.00
    S      2.00  2.00  2.00  2.00
    P      6.00  6.00
    D     10.00


 *******************************************************************************
                  Iteration          Convergence                     Energy [au]
 *******************************************************************************
                          1         49.6895                   -1612.820137964881
                          2         23.3604                   -1606.206666541477
                          3         24.6206                   -1674.194486194136
                          4         10.5673                   -1694.464760104590
                          5         3.29293                   -1699.044971614755
                          6        0.292686                   -1699.531158550977
                          7        0.355304E-01               -1699.535232494218
                          8        0.760624E-03               -1699.535303825859
                          9        0.375728E-04               -1699.535304184209
                         10        0.794069E-05               -1699.535304184330
                         11        0.808080E-06               -1699.535304184337

 Energy components [Hartree]           Total Energy ::        -1699.535304184337
                                        Band Energy ::        -1013.588130539007
                                     Kinetic Energy ::         1497.447521763421
                                        Core Energy ::        -2385.482489785290
                                          XC Energy ::            0.000000000000
                                     Coulomb Energy ::          752.398017120039
                                 HF Exchange Energy ::          -66.450831519087

 Orbital energies  State     L     Occupation   Energy[a.u.]          Energy[eV]

                       1     0          2.000    -333.203719        -9066.934302
                       2     0          2.000     -43.158094        -1174.391454
                       3     0          2.000      -5.404353         -147.059913
                       4     0          2.000      -0.171967           -4.679451

                       1     1          6.000     -37.020388        -1007.375992
                       2     1          6.000      -3.488559          -94.928521

                       1     2         10.000      -0.665818          -18.117838



                             NORMAL TERMINATION OF     
                                                       
                           ****  ******  ****   ****   
                          **  ** ****** **  ** ******  
                          ******   **   **  ** **  **  
                          **  **   **    ****  **  **  


 -------------------------------------------------------------------------------
 -                                                                             -
 -                           R E F E R E N C E S                               -
 -                                                                             -
 -------------------------------------------------------------------------------
 
 CP2K version 2.0.1 (Development Version), the CP2K developers group (2009).
 CP2K is freely available from http://cp2k.berlios.de/ .

 Frigo, M; Johnson, SG. 
 PROCEEDINGS OF THE IEEE, 93 (2), 216-231 (2005). 
 The design and implementation of FFTW3.
 http://dx.doi.org/10.1109/JPROC.2004.840301


 -------------------------------------------------------------------------------
 -                                                                             -
 -                                T I M I N G                                  -
 -                                                                             -
 -------------------------------------------------------------------------------
 SUBROUTINE                      CALLS  ASD          SELF TIME        TOTAL TIME
                                              AVERAGE  MAXIMUM  AVERAGE  MAXIMUM
 CP2K                                1  1.0      0.00     0.00     0.10     0.10
 atom_code                           1  2.0      0.00     0.00     0.10     0.10
 atom_energy                         1  3.0      0.00     0.00     0.10     0.10
 calculate_atom                      1  4.0      0.09     0.09     0.09     0.09
 -------------------------------------------------------------------------------

  **** **** ******  **  PROGRAM ENDED AT                     20090316 124250.893
 ***** ** ***  *** **   PROGRAM RAN ON                                  pcihopt3
 **    ****   ******    PROGRAM RAN BY                                    hutter
 ***** **    ** ** **   PROGRAM PROCESS ID                                  3430
  **** **  *******  **  PROGRAM STARTED IN /data03/hutter/cp2k/tests/ATOM/regtes
                                           t-1
 hutter@pcihopt3 has created process number                          0      3433

  **** **** ******  **  PROGRAM STARTED AT                   20090316 124251.000
 ***** ** ***  *** **   PROGRAM STARTED ON                              pcihopt3
 **    ****   ******    PROGRAM STARTED BY                                hutter
 ***** **    ** ** **   PROGRAM PROCESS ID                                  3433
  **** **  *******  **  PROGRAM STARTED IN /data03/hutter/cp2k/tests/ATOM/regtes
                                           t-1

 CP2K| version string:                  CP2K version 2.0.1 (Development Version)
 CP2K| is freely available from                          http://cp2k.berlios.de/
 CP2K| Program compiled at                          Sat Mar 14 16:08:29 CET 2009
 CP2K| Program compiled on                                              pcihopt3
 CP2K| Program compiled for                                     Linux-x86-64-g95
 CP2K| Last CVS entry               qs_spin_orbit.F/1.1/Fri Mar 13 15:32:59 2009
 CP2K| Input file name                                                    Zr.inp

 GLOBAL| Method name                                                        ATOM
 GLOBAL| Project name                                                    PROJECT
 GLOBAL| Preferred FFT library                                             FFTW3
 GLOBAL| Run type                                                   ENERGY_FORCE
 GLOBAL| All-to-all communication in single precision                          F
 GLOBAL| FFTs using library dependent lengths                                  F
 GLOBAL| Global print level                                                    2
 GLOBAL| Total number of message passing processes                             1
 GLOBAL| Number of threads for this process                                    1
 GLOBAL| This output is from process                                           0


 *** Fundamental physical constants (SI units) ***

 *** Literature: B. J. Mohr and B. N. Taylor,
 ***             CODATA recommended values of the fundamental physical
 ***             constants: 2006, Web Version 5.1
 ***             http://physics.nist.gov/constants

 Speed of light in vacuum [m/s]                             2.99792458000000E+08
 Magnetic constant or permeability of vacuum [N/A**2]       1.25663706143592E-06
 Electric constant or permittivity of vacuum [F/m]          8.85418781762039E-12
 Planck constant (h) [J*s]                                  6.62606896000000E-34
 Planck constant (h-bar) [J*s]                              1.05457162825177E-34
 Elementary charge [C]                                      1.60217648700000E-19
 Electron mass [kg]                                         9.10938215000000E-31
 Electron g factor [ ]                                     -2.00231930436220E+00
 Fine-structure constant                                    7.29735253760000E-03
 Rydberg constant [1/m]                                     1.09737315685270E+07
 Avogrado constant [1/mol]                                  6.02214179000000E+23
 Boltzmann constant [J/K]                                   1.38065040000000E-23
 Atomic mass unit [kg]                                      1.66053878200000E-27
 Bohr radius [m]                                            5.29177208590000E-11

 *** Conversion factors ***

 [u] -> [a.u.]                                              1.82288848426455E+03
 [Angstrom] -> [Bohr] = [a.u.]                              1.88972613288564E+00
 [a.u.] = [Bohr] -> [Angstrom]                              5.29177208590000E-01
 [a.u.] -> [s]                                              2.41888432650478E-17
 [a.u.] -> [fs]                                             2.41888432650478E-02
 [a.u.] -> [J]                                              4.35974393937059E-18
 [a.u.] -> [K]                                              3.15774647902944E+05
 [a.u.] -> [kJ/mol]                                         2.62549961709828E+03
 [a.u.] -> [kcal/mol]                                       6.27509468713739E+02
 [a.u.] -> [Pa]                                             2.94210107994716E+13
 [a.u.] -> [bar]                                            2.94210107994716E+08
 [a.u.] -> [atm]                                            2.90362800883016E+08
 [a.u.] -> [eV]                                             2.72113838565563E+01
 [a.u.] -> [Hz]                                             6.57968392072181E+15
 [a.u.] -> [1/cm] (wave numbers)                            2.19474631370540E+05
 [a.u./Bohr**2] -> [1/cm]                                   5.14048714338585E+03
 


                           ****  ******  ****   ****   
                          **  ** ****** **  ** ******  
                          ******   **   **  ** **  **  
                          **  **   **    ****  **  **  
                                                       
                             University of Zurich      
                                    2009               
                                                       
                                 Version 0.0           
                                                                   


 Atomic Energy Calculation             Zirconium [Zr]        Atomic number:   40


 METHOD    | Restricted Kohn-Sham Calculation
 METHOD    | Nonrelativistic Calculation
 FUNCTIONAL| ROUTINE=NEW
 FUNCTIONAL| PADE:
 FUNCTIONAL| S. Goedecker, M. Teter and J. Hutter, Phys. Rev. B 54, 1703 (1996)


 Electronic structure 
    Total number of core electrons                                          0.00
    Total number of valence electrons                                      40.00
    Total number of electrons                                              40.00
    S      2.00  2.00  2.00  2.00  2.00
    P      6.00  6.00  6.00
    D     10.00  2.00


 *******************************************************************************
                  Iteration          Convergence                     Energy [au]
 *******************************************************************************
                          1         44.7483                   -3419.715369407489
                          2         22.0812                   -3220.398204823280
                          3         27.1318                   -3484.195607860688
                          4         4.34584                   -3533.110177363970
                          5        0.841712                   -3536.270190410514
                          6        0.462863                   -3536.183368035908
                          7        0.427854E-01               -3536.323101958622
                          8        0.606681E-02               -3536.323440159865
                          9        0.860367E-04               -3536.323524301178
                         10        0.288894E-04               -3536.323524347254
                         11        0.422137E-06               -3536.323524349273

 Energy components [Hartree]           Total Energy ::        -3536.323524349273
                                        Band Energy ::        -2107.927385375325
                                     Kinetic Energy ::         3533.843592692969
                                        Core Energy ::        -4891.748444173573
                                          XC Energy ::         -108.126786535204
                                     Coulomb Energy ::         1463.551706359504
                                 HF Exchange Energy ::            0.000000000000

 Orbital energies  State     L     Occupation   Energy[a.u.]          Energy[eV]

                       1     0          2.000    -639.295977       -17396.128228
                       2     0          2.000     -87.257385        -2374.394190
                       3     0          2.000     -14.249965         -387.761275
                       4     0          2.000      -1.921254          -52.279993
                       5     0          2.000      -0.162644           -4.425758

                       1     1          6.000     -80.027553        -2177.660476
                       2     1          6.000     -11.524454         -313.596352
                       3     1          6.000      -1.186388          -32.283250

                       1     2         10.000      -6.542199         -178.022301
                       2     2          2.000      -0.150284           -4.089431



                             NORMAL TERMINATION OF     
                                                       
                           ****  ******  ****   ****   
                          **  ** ****** **  ** ******  
                          ******   **   **  ** **  **  
                          **  **   **    ****  **  **  


 -------------------------------------------------------------------------------
 -                                                                             -
 -                           R E F E R E N C E S                               -
 -                                                                             -
 -------------------------------------------------------------------------------
 
 CP2K version 2.0.1 (Development Version), the CP2K developers group (2009).
 CP2K is freely available from http://cp2k.berlios.de/ .

 Frigo, M; Johnson, SG. 
 PROCEEDINGS OF THE IEEE, 93 (2), 216-231 (2005). 
 The design and implementation of FFTW3.
 http://dx.doi.org/10.1109/JPROC.2004.840301


 Goedecker, S; Teter, M; Hutter, J. 
 PHYSICAL REVIEW B, 54 (3), 1703-1710 (1996). 
 Separable dual-space Gaussian pseudopotentials.
 http://dx.doi.org/10.1103/PhysRevB.54.1703


 -------------------------------------------------------------------------------
 -                                                                             -
 -                                T I M I N G                                  -
 -                                                                             -
 -------------------------------------------------------------------------------
 SUBROUTINE                      CALLS  ASD          SELF TIME        TOTAL TIME
                                              AVERAGE  MAXIMUM  AVERAGE  MAXIMUM
 CP2K                                1  1.0      0.00     0.00     0.48     0.48
 atom_code                           1  2.0      0.00     0.00     0.48     0.48
 atom_energy                         1  3.0      0.01     0.01     0.48     0.48
 calculate_atom                      1  4.0      0.26     0.26     0.46     0.46
 calculate_atom_vxc                 11  5.0      0.19     0.19     0.19     0.19
 -------------------------------------------------------------------------------

  **** **** ******  **  PROGRAM ENDED AT                     20090316 124251.480
 ***** ** ***  *** **   PROGRAM RAN ON                                  pcihopt3
 **    ****   ******    PROGRAM RAN BY                                    hutter
 ***** **    ** ** **   PROGRAM PROCESS ID                                  3433
  **** **  *******  **  PROGRAM STARTED IN /data03/hutter/cp2k/tests/ATOM/regtes
                                           t-1
