       5      10.000         0.041795565       139.661167160     -1009.159433975     -1009.117638411     -0.000009807448
      10      20.000         0.053927752       180.201244270     -1009.171579206     -1009.117651454     -0.000022850533
      15      30.000         0.067059427       224.081140099     -1009.184716704     -1009.117657277     -0.000028673583
      20      40.000         0.078194113       261.288036437     -1009.195851608     -1009.117657495     -0.000028891796
      25      50.000         0.086498446       289.037221875     -1009.204154388     -1009.117655942     -0.000027338751
      30      60.000         0.092082304       307.695856930     -1009.209736548     -1009.117654243     -0.000025640105
      35      70.000         0.095365105       318.665436524     -1009.213017220     -1009.117652115     -0.000023511337
      40      80.000         0.097075946       324.382263071     -1009.214725024     -1009.117649078     -0.000020475115
      45      90.000         0.098303005       328.482520839     -1009.215949311     -1009.117646306     -0.000017702259
      50     100.000         0.099999756       334.152266977     -1009.217646037     -1009.117646280     -0.000017677157
