 10 0.211169978727577403E-07 0.965308652441815820E-08
 20 0.135581049185974025E-07 0.149335922349075304E-07
 30 0.447314883041189099E-07 0.243112383572300788E-07
 40 0.186561908588683495E-07 0.230605581910412686E-07
 50 0.334112252891722732E-07 0.233846099488139400E-07
 60 0.423388690061113037E-07 0.247225187205100454E-07
 70 0.587067737871266095E-07 0.290561799708929933E-07
 80 0.564730503964860789E-07 0.322638390072169476E-07
 90 0.361248335766182585E-07 0.345777680831798257E-07
 100 0.328494713889055094E-07 0.351005043361584504E-07
 110 0.317297916746229938E-07 0.344995765154015838E-07
 120 0.232237933825440774E-07 0.330394216265966138E-07
 130 0.311941084239586340E-07 0.333024838022390602E-07
 140 0.229187553162015049E-07 0.329382754031099860E-07
 150 0.100712016744730850E-07 0.320144580550855024E-07
 160 0.215244322292380125E-07 0.307535100395284878E-07
 170 0.107503593519791089E-07 0.295511814682464001E-07
 180 0.491745219878992891E-07 0.293261876333481777E-07
 190 0.312531752062918583E-07 0.287399689679603415E-07
 200 0.668111911297459458E-08 0.281995850757591739E-07
 210 0.608615655884303425E-09 0.270985777809292826E-07
 220 0.113070880575595200E-07 0.261624755643561809E-07
 230 0.358691298393623574E-08 0.253766352133518356E-07
 240 0.928745259463911960E-08 0.250641797148734102E-07
 250 0.151666213482732045E-07 0.246682854088857938E-07
 260 0.203546812956132812E-07 0.246894764156368634E-07
 270 0.126853675464287334E-07 0.243098632605181880E-07
 280 0.382102986164080558E-07 0.244446564827889816E-07
 290 0.211634598406081160E-07 0.241143660846063137E-07
 300 0.686375391286558365E-09 0.235728775471384136E-07
 310 0.960123334073475676E-08 0.231970231625392367E-07
 320 0.345297321348304922E-07 0.229022856671390017E-07
 330 0.304940383286389968E-07 0.226065312418879081E-07
 340 0.351042208426132536E-07 0.227165369620769640E-07
 350 0.240189392323247612E-07 0.230739925847100028E-07
 360 0.389755270149463157E-07 0.233488129582807515E-07
 370 0.213462671377590468E-07 0.236667754063706843E-07
 380 0.395961374312784718E-07 0.240536823151825704E-07
 390 0.281729391004426498E-07 0.244322423427916077E-07
 400 0.262563439174303986E-07 0.247268962310156866E-07
 410 0.262658339725665700E-07 0.245541891851612369E-07
 420 0.452649653937489209E-08 0.243873483630370510E-07
 430 0.325395297779049913E-07 0.242978564803907861E-07
 440 0.245410954282537685E-07 0.240904032943358449E-07
 450 0.361849904739883276E-07 0.243626625363446232E-07
 460 0.401122616347882580E-07 0.247566953973968296E-07
 470 0.406897045554483145E-07 0.248823694024497841E-07
 480 0.241087768199922401E-07 0.251641482319740979E-07
 490 0.337652816651115769E-07 0.252900179072343802E-07
 500 0.135731861398218345E-07 0.253065587166491236E-07
 510 0.311875234256178346E-07 0.252991563014684001E-07
 520 0.450629415636105505E-07 0.255085008408281991E-07
 530 0.264496081563196320E-07 0.257570122028382197E-07
 540 0.625640548047933209E-07 0.260687790349860101E-07
 550 0.388562343363390444E-07 0.263013863470096610E-07
 560 0.115544567948610119E-07 0.261095900466906351E-07
 570 0.229225679566194466E-07 0.259876137282715528E-07
 580 0.223981051453694258E-07 0.261656106934319651E-07
 590 0.123779866741635520E-07 0.261097881997615823E-07
 600 0.235941788226313639E-07 0.259534653425938809E-07
 610 0.429383411797856183E-07 0.259274253084272791E-07
 620 0.476779398194029002E-07 0.261857294587793486E-07
 630 0.472957519589497584E-08 0.262546987862408985E-07
 640 0.210559733028958301E-07 0.259376753363996869E-07
 650 0.133475229694997712E-07 0.256781686943001259E-07
 660 0.394098593314168855E-08 0.253991516631725576E-07
 670 0.193212659953646918E-07 0.251991913306610468E-07
 680 0.271486165479158264E-08 0.251097231402306477E-07
 690 0.232630864544659149E-07 0.249818095373060297E-07
 700 0.207233972328082667E-07 0.248709051712190060E-07
 710 0.620305885385207995E-08 0.246851468778821048E-07
 720 0.326810582552652291E-07 0.246485001320194723E-07
 730 0.286608932612275517E-07 0.245471305688367612E-07
 740 0.152329055061570390E-07 0.247290312404953938E-07
 750 0.311956935948571850E-07 0.247728301554776636E-07
 760 0.101347775126325266E-07 0.246501438748050218E-07
 770 0.242866075148221931E-07 0.245161977266351937E-07
 780 0.171590977377039492E-07 0.245549864370305759E-07
 790 0.753389562084200693E-09 0.244910526597564317E-07
 800 0.327988465999251746E-08 0.242587776228828243E-07
 810 0.198096417033750358E-07 0.241982907571181127E-07
 820 0.924092625036035989E-08 0.241119377187123767E-07
 830 0.171484751760474419E-07 0.239700153630421630E-07
 840 0.135587009924623132E-07 0.238145028423822651E-07
 850 0.594814871673522200E-08 0.236541896510990481E-07
 860 0.142666816091849348E-07 0.234648367129694587E-07
 870 0.362413692303924408E-07 0.234231724067057243E-07
 880 0.172974846228104069E-07 0.233413132555383168E-07
 890 0.851107117718419912E-10 0.232178279679612944E-07
 900 0.162552116446354557E-08 0.230393458247323924E-07
 910 0.657915090917414835E-08 0.228809516340396528E-07
 920 0.162441515262038903E-08 0.226789697352824554E-07
 930 0.138444261302898286E-07 0.225670986267592278E-07
 940 0.117579353518915621E-07 0.223963773443522469E-07
 950 0.298233340315598875E-07 0.225423373326768942E-07
 960 0.534440716823136311E-07 0.226233992842984941E-07
 970 0.180200765466532527E-07 0.227363737215061145E-07
 980 0.250714486263292291E-07 0.226670900191281142E-07
 990 0.233135685104193913E-07 0.226887138684174984E-07
 1000 0.141894295568947830E-07 0.226989148923577226E-07
 1010 0.223556282024536285E-07 0.226498034748170582E-07
 1020 0.253018817404902602E-07 0.225562035923550303E-07
 1030 0.456186002224627857E-07 0.226645018318987362E-07
 1040 0.457631285737397044E-07 0.228927728689404605E-07
 1050 0.373641098127208151E-07 0.229718393054693535E-07
 1060 0.471416701907980461E-08 0.229145860761483322E-07
 1070 0.343178385300974627E-07 0.228724540688877308E-07
 1080 0.151453983226483844E-07 0.228280237415454973E-07
 1090 0.140300914702770497E-07 0.227906274974686924E-07
 1100 0.349782964899360244E-08 0.226689447820988404E-07
 1110 0.133776492213470382E-07 0.226251877757661783E-07
 1120 0.189653950158967851E-07 0.225115777915921635E-07
 1130 0.106159996578041063E-07 0.224504994239931971E-07
 1140 0.975540079379990482E-08 0.222963245315974217E-07
 1150 0.631678866494118809E-08 0.221504793739155216E-07
 1160 0.257956504118548904E-07 0.221037557553025136E-07
 1170 0.111000998013773423E-07 0.220959030602142424E-07
 1180 0.173327850032527799E-07 0.220921731946715399E-07
 1190 0.120550111476531716E-07 0.220855835025061865E-07
 1200 0.262422750183608811E-07 0.220380759524026110E-07
 1210 0.982282625218203600E-08 0.219822887054661408E-07
 1220 0.476551629655189178E-08 0.219430666948343627E-07
 1230 0.450090482334125878E-08 0.218582566980827843E-07
 1240 0.652013982203465690E-08 0.217569923799075034E-07
 1250 0.169181904320786208E-07 0.217011312642047523E-07
 1260 0.137311561991505906E-07 0.216196825930169404E-07
 1270 0.578740844160644643E-08 0.215053975525366054E-07
 1280 0.397355025900610870E-08 0.213806899203349120E-07
 1290 0.226918037153653109E-07 0.213160549672089175E-07
 1300 0.174567205639918608E-07 0.213962051038785698E-07
 1310 0.450959491961586917E-07 0.213770710255942780E-07
 1320 0.889386999361879128E-08 0.213009858008242478E-07
 1330 0.391113121227536414E-07 0.212655802076925135E-07
 1340 0.318230217084026579E-08 0.212978130831735696E-07
 1350 0.188397713496197262E-07 0.212102684267325341E-07
 1360 0.623442189977880058E-09 0.211167696818791470E-07
 1370 0.592222260405257687E-08 0.210049284499640471E-07
 1380 0.133600619418912420E-07 0.209135589891982946E-07
 1390 0.481735729268378911E-07 0.209237843396436748E-07
 1400 0.136255395091874135E-07 0.210457884507815549E-07
 1410 0.592210659118951823E-08 0.209852722745104838E-07
 1420 0.230882713048723421E-07 0.209380408930118790E-07
 1430 0.418049320365314136E-07 0.210674639261268470E-07
 1440 0.300988232045311104E-07 0.211541701513898214E-07
 1450 0.397401622709456591E-07 0.212215205927182554E-07
 1460 0.229698039072734176E-07 0.212350709146546980E-07
 1470 0.329786402684759449E-07 0.213174334110787417E-07
 1480 0.371910077976794121E-07 0.214080596606382364E-07
 1490 0.364358852582209810E-07 0.215701041532818555E-07
 1500 0.413010604374129355E-07 0.216252278834777240E-07
 1510 0.239603787801839545E-07 0.217437257794627974E-07
 1520 0.338694262657132766E-07 0.218107757966673064E-07
 1530 0.556579123397647538E-07 0.219039769676527727E-07
 1540 0.502578145890017962E-07 0.221333751173002170E-07
 1550 0.277312956059899228E-07 0.222726019748475378E-07
 1560 0.363383224991474839E-07 0.223201470089206213E-07
 1570 0.491700989552164264E-07 0.223822980328967088E-07
 1580 0.490939950807663033E-07 0.226105160086891760E-07
 1590 0.315327990145662542E-07 0.227389321823646856E-07
 1600 0.431633150375277536E-07 0.228351559750391127E-07
 1610 0.424131109248438151E-07 0.229142710038898131E-07
 1620 0.560437784506137102E-07 0.230269197539480587E-07
 1630 0.583289547298255880E-07 0.232011098189050333E-07
 1640 0.491619987995708124E-07 0.233092487936408377E-07
 1650 0.638917672292554650E-07 0.235706889020409274E-07
 1660 0.520301411813167978E-07 0.237163244993552802E-07
 1670 0.462402658034065725E-07 0.238898594413004454E-07
 1680 0.410125486232625586E-07 0.240332516172091403E-07
 1690 0.259857121771044871E-07 0.240154671496106522E-07
 1700 0.267950111452051339E-07 0.240682477662069956E-07
 1710 0.523332227003070620E-07 0.241752529110931895E-07
 1720 0.383466486809275160E-07 0.242491055298137960E-07
 1730 0.188793728872299307E-07 0.243271057008013749E-07
 1740 0.258900236627690753E-07 0.243083687622220858E-07
 1750 0.299441074807632857E-07 0.243536020323998008E-07
 1760 0.358685844999856633E-07 0.243853024671689948E-07
 1770 0.432967922898376813E-07 0.244580908496158637E-07
 1780 0.421220973367077390E-07 0.245307685081778090E-07
 1790 0.408735683701305617E-07 0.246676480171862124E-07
 1800 0.346605408658034496E-07 0.247918762895084678E-07
 1810 0.387600981183309353E-07 0.249069203889220800E-07
 1820 0.253590111418333931E-07 0.249389133755717763E-07
 1830 0.523777006114381887E-07 0.250317950943397565E-07
 1840 0.150302950725915584E-07 0.250568950641250861E-07
 1850 0.681369607615392488E-07 0.251415548128576175E-07
 1860 0.493457603560734805E-07 0.253281463570121157E-07
 1870 0.582047739523934577E-07 0.255014016706779844E-07
 1880 0.231863354334327455E-07 0.255597762319877989E-07
 1890 0.608321942657677581E-07 0.256923961329209992E-07
 1900 0.493178605590558407E-07 0.258419455045980239E-07
 1910 0.733372329511666729E-07 0.260233689788470852E-07
 1920 0.304790907082335361E-07 0.261273889659951853E-07
 1930 0.149059642338176049E-07 0.261251641354404591E-07
 1940 0.586978422623340661E-08 0.260338534605248382E-07
 1950 0.363589636565640957E-07 0.260593695555546136E-07
 1960 0.124464364054911553E-07 0.260237785622693318E-07
 1970 0.516794890895369390E-08 0.259787249513916269E-07
 1980 0.983014746431853531E-08 0.258917512145709631E-07
 1990 0.192779656880767668E-07 0.258257299174942916E-07
 2000 0.230881105329163440E-07 0.257446234252192337E-07
 2010 0.224236124166660036E-07 0.257673725226966081E-07
 2020 0.299446400801462696E-07 0.257363872272760001E-07
 2030 0.130964501635851220E-07 0.256871181556429012E-07
 2040 0.209313760516870801E-07 0.256537562813112199E-07
 2050 0.377760205294682348E-09 0.255713076369744208E-07
 2060 0.287674011870337629E-07 0.254977459995796826E-07
 2070 0.145692165486221272E-07 0.254460054560378371E-07
 2080 0.622759393961108881E-08 0.253606817908047914E-07
 2090 0.721935194078687464E-09 0.252728219786165410E-07
 2100 0.212523053999159671E-07 0.252327372681535785E-07
 2110 0.923126719300676617E-08 0.251364821462173112E-07
 2120 0.225731632567899117E-07 0.250913743597096434E-07
 2130 0.816890549962024788E-08 0.250763483158012665E-07
 2140 0.141589906678567837E-07 0.250195116992353971E-07
 2150 0.319617044319470821E-07 0.249937033931772622E-07
 2160 0.263110663619091512E-07 0.249738212421657518E-07
 2170 0.163646540532402064E-07 0.249435816452143446E-07
 2180 0.128862401546577829E-07 0.248715075458153664E-07
 2190 0.236133300772439656E-07 0.248516378279516639E-07
 2200 0.392598139991478079E-07 0.248946274307155514E-07
 2210 0.433291296634248067E-07 0.250003137271919162E-07
 2220 0.579293171367513854E-07 0.251678233712387124E-07
 2230 0.408682212933022840E-07 0.252355338635777326E-07
 2240 0.504346407409650322E-07 0.253274802816715619E-07
 2250 0.199960964719989322E-07 0.254057857550922757E-07
 2260 0.303433157473238620E-07 0.253831738980087651E-07
 2270 0.405919844067180288E-07 0.253936945495267501E-07
 2280 0.449658523264270885E-07 0.254268707034851073E-07
 2290 0.146412103658100390E-07 0.254804631515484971E-07
 2300 0.246866616944163267E-07 0.254477816323827484E-07
 2310 0.691263776479420327E-07 0.255824398745628528E-07
 2320 0.341072817227573213E-07 0.256636402743024400E-07
 2330 0.425490755199961205E-07 0.257142859802743196E-07
 2340 0.441667079225149618E-07 0.257683836688442135E-07
 2350 0.491266868065678073E-07 0.258494704518507875E-07
 2360 0.362138253639954847E-07 0.258901557783861070E-07
 2370 0.277712828384538914E-07 0.259509408963882296E-07
 2380 0.563832555385320149E-07 0.260614801814737832E-07
 2390 0.564777429984163449E-07 0.262023231763041101E-07
 2400 0.401118666949833061E-07 0.263204822854083785E-07
 2410 0.513480018943098476E-07 0.263775357366499631E-07
 2420 0.269225530261100673E-07 0.263637712954216995E-07
 2430 0.261404737873983235E-07 0.263352177495308791E-07
 2440 0.271268372468135255E-07 0.263391190959622717E-07
 2450 0.256291057730440315E-07 0.263688609881556386E-07
 2460 0.171612955557335641E-07 0.263553733315005150E-07
 2470 0.267588212200693331E-08 0.262985368299667095E-07
 2480 0.344868100813380638E-08 0.262137178061634535E-07
 2490 0.257168647123575584E-07 0.261440934810938118E-07
 2500 0.635374242598293910E-08 0.261112426756948537E-07
 2510 0.993012135175877794E-08 0.260458014023482268E-07
 2520 0.280817503969822659E-07 0.260094080129594246E-07
 2530 0.235068098624172745E-07 0.260099076058257036E-07
 2540 0.334147498704404458E-07 0.260271412212265703E-07
 2550 0.183270496263764655E-07 0.260241525885490420E-07
 2560 0.166653958103771539E-07 0.260062153698755584E-07
 2570 0.176583015384197438E-07 0.259600589817945400E-07
 2580 0.155697626651037599E-07 0.259383089289731007E-07
 2590 0.909374933331183520E-08 0.258698720684821422E-07
 2600 0.151578480023405939E-07 0.258116927068967270E-07
 2610 0.325361661940794359E-07 0.258174358489577057E-07
 2620 0.167162348116410726E-08 0.257555572389805094E-07
 2630 0.178713796243377086E-07 0.257174740292742463E-07
 2640 0.221513752116462545E-07 0.256915816655054270E-07
 2650 0.259119984607659784E-07 0.256577093576909861E-07
 2660 0.139329101218116436E-07 0.256561959989430927E-07
 2670 0.119799288403091507E-07 0.256120830699289404E-07
 2680 0.229006878630005512E-07 0.255504418358135943E-07
 2690 0.280528583461183856E-07 0.255372177272501456E-07
 2700 0.443639110743261559E-07 0.255658218454292438E-07
 2710 0.476174246238026997E-07 0.255929485683041129E-07
 2720 0.299463329209031494E-07 0.255990207596312334E-07
 2730 0.223261182055232525E-07 0.256258696761289576E-07
 2740 0.488296627599841779E-07 0.256770098668703812E-07
 2750 0.487564468053467434E-07 0.257886630255172864E-07
 2760 0.320837877328929675E-07 0.258659284127521821E-07
 2770 0.684029677714058023E-07 0.259615912796076701E-07
 2780 0.665932922527574835E-07 0.261263165395100091E-07
 2790 0.818474272109078476E-07 0.262452546449131242E-07
 2800 0.725487249763378484E-07 0.264219344590788231E-07
 2810 0.568363252289346302E-07 0.265523306561367426E-07
 2820 0.687148549936578345E-07 0.267285096286198733E-07
 2830 0.449587834338119931E-07 0.268585431306401702E-07
 2840 0.264036389894648161E-07 0.269433288700954479E-07
 2850 0.495175012211676448E-07 0.269661960441340538E-07
 2860 0.522032335004337877E-07 0.270703420942190945E-07
 2870 0.609647396946440800E-07 0.271678472833387277E-07
 2880 0.897272226803899795E-07 0.273806908429108706E-07
 2890 0.568229211771473820E-07 0.275244763941576119E-07
 2900 0.522805778894924963E-07 0.276362978789168842E-07
 2910 0.885815177520578298E-07 0.278138363324480216E-07
 2920 0.905499268277109310E-07 0.280745475046608398E-07
 2930 0.791196453986033213E-07 0.282988179211388692E-07
 2940 0.627069946028724825E-07 0.284485746418371730E-07
 2950 0.736084704612819048E-07 0.286033534201296072E-07
 2960 0.723113987363775615E-07 0.287665902098754418E-07
 2970 0.854660183583142910E-07 0.289241824362901175E-07
 2980 0.104351094478479796E-06 0.291215644911847324E-07
 2990 0.988065141502226199E-07 0.294378961218653617E-07
 3000 0.787367527797371715E-07 0.296230791460152538E-07
 3010 0.790313502521209851E-07 0.297761783771387383E-07
 3020 0.706692063318288382E-07 0.299571643877320588E-07
 3030 0.734825439664818447E-07 0.301018063947453037E-07
 3040 0.759717252012253642E-07 0.302043368533791943E-07
 3050 0.647540378510181187E-07 0.303399928466804192E-07
 3060 0.730538489281121633E-07 0.305162226163381620E-07
 3070 0.796971989204476808E-07 0.306810176244821581E-07
 3080 0.762295346452289278E-07 0.308272359134847805E-07
 3090 0.833708306739456601E-07 0.309821439071881171E-07
 3100 0.734279286281448811E-07 0.311200539795615788E-07
 3110 0.716157387082604691E-07 0.312889847007075470E-07
 3120 0.785793243392559810E-07 0.313845199674049665E-07
 3130 0.870965713693193165E-07 0.315235602085024244E-07
 3140 0.902831903686471115E-07 0.316842610213892245E-07
 3150 0.629824993344200935E-07 0.318340369295860064E-07
 3160 0.732841913966542408E-07 0.319273677895359271E-07
 3170 0.730166929055773821E-07 0.320432755159139272E-07
 3180 0.670201249971796358E-07 0.321425441810125147E-07
 3190 0.472019233709524280E-07 0.321950020449301269E-07
 3200 0.591912014500071164E-07 0.322811014865931300E-07
 3210 0.730783786021924315E-07 0.323656337522124782E-07
 3220 0.615669674274884865E-07 0.324574159751109470E-07
 3230 0.460154164142755285E-07 0.325410007610556753E-07
 3240 0.468871440573853451E-07 0.326060827794425840E-07
 3250 0.583837314038350862E-07 0.326831080885806776E-07
 3260 0.635567150906562453E-07 0.327938778856239796E-07
 3270 0.578117935133766227E-07 0.328869049541219309E-07
 3280 0.406747490430113550E-07 0.329146673904612282E-07
 3290 0.275211592184421504E-07 0.329177125644423196E-07
 3300 0.585692799417560986E-07 0.329353807028269632E-07
 3310 0.595341213802959138E-07 0.329684852485115393E-07
 3320 0.418247122860546133E-07 0.330569982386451889E-07
 3330 0.773480047365690249E-07 0.330968853028903213E-07
 3340 0.629836496543829671E-07 0.332223436474437795E-07
 3350 0.816191465919669595E-07 0.333494433283503387E-07
 3360 0.606788364223912674E-07 0.334726345809736191E-07
 3370 0.562413252440250916E-07 0.335423640787864193E-07
 3380 0.596104932455871353E-07 0.336042939338674481E-07
 3390 0.586667277026563013E-07 0.336978558728895463E-07
 3400 0.765705627428237185E-07 0.338252696376592040E-07
 3410 0.770680077479479574E-07 0.339763956571824925E-07
 3420 0.834656032616537749E-07 0.341191455599078885E-07
 3430 0.638326039386513287E-07 0.342335250703288526E-07
 3440 0.620522137195222192E-07 0.343056292269691358E-07
 3450 0.101154074909067269E-06 0.344524701989718450E-07
 3460 0.788200902647741308E-07 0.346015875108620530E-07
 3470 0.857734630432913198E-07 0.347313038957583479E-07
 3480 0.470779023507865272E-07 0.348722283042373232E-07
 3490 0.843673235557918890E-07 0.349334506327197120E-07
 3500 0.473425901512160978E-07 0.350509139037239254E-07
 3510 0.835785884031991554E-07 0.351515435058471489E-07
 3520 0.579718975780231462E-07 0.352508072183543707E-07
 3530 0.801093459471668930E-07 0.353682463174738068E-07
 3540 0.751421334525272113E-07 0.354513899076645376E-07
 3550 0.800057375537340059E-07 0.355905281149712620E-07
 3560 0.486466199420646108E-07 0.356397298633176948E-07
 3570 0.624793543659162085E-07 0.356795422192490310E-07
 3580 0.498935338607668420E-07 0.357408612001720314E-07
 3590 0.460656849344052582E-07 0.357817102690545192E-07
 3600 0.459206337924130767E-07 0.357880468052598539E-07
 3610 0.298631739085214112E-07 0.357875339526587392E-07
 3620 0.116103833378601435E-07 0.357661777617824073E-07
 3630 0.263667399089270343E-07 0.357484212214739649E-07
 3640 0.187843173138208661E-07 0.357359531460898219E-07
 3650 0.407625783341485406E-08 0.356604388138769976E-07
 3660 0.512348663531927333E-07 0.356366130492659665E-07
 3670 0.177356485205745159E-07 0.356176827664951683E-07
 3680 0.429507291888888120E-07 0.356281092370379200E-07
 3690 0.336704134710790006E-07 0.356061540129927285E-07
 3700 0.575962994511297091E-07 0.356359361613558275E-07
 3710 0.313839364723325088E-07 0.356557675102453024E-07
 3720 0.196383218217897739E-07 0.356460718353365669E-07
 3730 0.202389241343749734E-07 0.355936374383054119E-07
 3740 0.352483402739151373E-07 0.355961073094115876E-07
 3750 0.253696931192127732E-07 0.355809275752504347E-07
 3760 0.403948694201730361E-07 0.355595359869518278E-07
 3770 0.488890785955963457E-07 0.355831129481128673E-07
 3780 0.293689711754242462E-07 0.356070860296227374E-07
 3790 0.404277611526014257E-07 0.356156856599476833E-07
 3800 0.360156234192262372E-07 0.356167776189565006E-07
 3810 0.427529668302741504E-07 0.356483684294836032E-07
 3820 0.479561962768481584E-07 0.356880114016833675E-07
 3830 0.609249619392447941E-07 0.357355346804550444E-07
 3840 0.421907151683063091E-07 0.357539145020528485E-07
 3850 0.647568288115866436E-07 0.357880170652064075E-07
 3860 0.235979856003973339E-07 0.357955964074289707E-07
 3870 0.306912526420375945E-07 0.357670031446040250E-07
 3880 0.392321863644736350E-07 0.358110583714784031E-07
 3890 0.557425671176024738E-07 0.358321046469435352E-07
 3900 0.793783140593506841E-07 0.358973254959211757E-07
 3910 0.607789043377496764E-07 0.359743817951537880E-07
 3920 0.749273958978712791E-07 0.360498785862356678E-07
 3930 0.753922280975090144E-07 0.361346299920404051E-07
 3940 0.762311523989432520E-07 0.362229061179754861E-07
 3950 0.787894382908856251E-07 0.363532083772648895E-07
 3960 0.217578808886354272E-07 0.363889244620779907E-07
 3970 0.432570348282336853E-07 0.363991249170978851E-07
 3980 0.473215921612323583E-07 0.364066472542924790E-07
 3990 0.418934701448406629E-07 0.364071778519030722E-07
 4000 0.554913867545728037E-07 0.364328360290049493E-07
 4010 0.747833358822922682E-07 0.365090148641371207E-07
 4020 0.504609961801613103E-07 0.365684369632255524E-07
 4030 0.850832658793789419E-07 0.366305069160093484E-07
 4040 0.580010449924777209E-07 0.367423464383440337E-07
 4050 0.470310320266776498E-07 0.367955275940409998E-07
 4060 0.641807098355824786E-07 0.368694026106677216E-07
 4070 0.564350237701334791E-07 0.368926266699907907E-07
 4080 0.555816028215223860E-07 0.369338835459300234E-07
 4090 0.513089337452857762E-07 0.369437306253923404E-07
 4100 0.449060518106509217E-07 0.369839386451220266E-07
 4110 0.244867722078256378E-07 0.369528977148961222E-07
 4120 0.251174970517289726E-07 0.369579580879723313E-07
 4130 0.471639425183825286E-07 0.369910754566752105E-07
 4140 0.429884215313357138E-07 0.369971759871413783E-07
 4150 0.332437197391545626E-07 0.369972806633507692E-07
 4160 0.431505344562290555E-07 0.369841120849709023E-07
 4170 0.178888800914470008E-07 0.369860762211554078E-07
 4180 0.221052156213456614E-07 0.369478003579628040E-07
 4190 0.217941270726814957E-07 0.369337870260906397E-07
 4200 0.196001807609804097E-07 0.368896111507490872E-07
 4210 0.110957525321968864E-07 0.368228486797274390E-07
 4220 0.429303525272707761E-08 0.367657130142851885E-07
 4230 0.182437469790214124E-07 0.367054015209302543E-07
 4240 0.783121663329667110E-09 0.366348226078260979E-07
 4250 0.175007376932266525E-09 0.365806982406675224E-07
 4260 0.599618627230303945E-08 0.365009640398534284E-07
 4270 0.204367943883345798E-07 0.364482559375953162E-07
 4280 0.100306993178387396E-07 0.364071984584970549E-07
 4290 0.448311550787904747E-08 0.363322415213644075E-07
 4300 0.262706934345914159E-08 0.362546329752052627E-07
 4310 0.736993190181846144E-09 0.361889267653798813E-07
 4320 0.328508355829220437E-07 0.361305419879687447E-07
 4330 0.667010521929896075E-08 0.360814021612320330E-07
 4340 0.808653974914762470E-08 0.360142338429504856E-07
 4350 0.252331165533892484E-07 0.359641671747402043E-07
 4360 0.167198155390762058E-08 0.359018841568863991E-07
 4370 0.103471216396209379E-07 0.358425616209092842E-07
 4380 0.102888295165511518E-07 0.357809850719366220E-07
 4390 0.102233010770551530E-07 0.357181643266533214E-07
 4400 0.258838339424631473E-09 0.356804065509197344E-07
 4410 0.614575300923325544E-08 0.356110742405187285E-07
 4420 0.217578877659771632E-08 0.355420972708598046E-07
 4430 0.115769945201905241E-07 0.354927295882741776E-07
 4440 0.985846238219310742E-08 0.354492797293777233E-07
 4450 0.177034482428488892E-07 0.353877436499173291E-07
 4460 0.111773861276328671E-08 0.353534034181792314E-07
 4470 0.692409931704521281E-08 0.352955821611222098E-07
 4480 0.571703091246985933E-08 0.352715836489086413E-07
 4490 0.854422639072140057E-08 0.352196073218865796E-07
 4500 0.772129416369006951E-09 0.351586155118825278E-07
 4510 0.469558669657461789E-08 0.350911253477090132E-07
 4520 0.201358210564447420E-07 0.350543674970182856E-07
 4530 0.992074798594550726E-08 0.349936215293387851E-07
 4540 0.376451791029361998E-07 0.349716453055374695E-07
 4550 0.387296712928268017E-07 0.349587313146995596E-07
 4560 0.743138568545069741E-07 0.349952189506910130E-07
 4570 0.646535386925098478E-07 0.350645824789683879E-07
 4580 0.348376551896597658E-07 0.351082249719505185E-07
 4590 0.563512737573356493E-07 0.351117675918898141E-07
 4600 0.648324616444994940E-07 0.351578590639714231E-07
 4610 0.603067787735723083E-07 0.351936862789796945E-07
 4620 0.844210281536936859E-07 0.352753593525517507E-07
 4630 0.552346748666643585E-07 0.353316259866167420E-07
 4640 0.745781899644922553E-07 0.353828606120922607E-07
 4650 0.915822249545289566E-07 0.354948095436817191E-07
 4660 0.803826689829778170E-07 0.356015180189309369E-07
 4670 0.936061746528408176E-07 0.357179139125763878E-07
 4680 0.842599151491914707E-07 0.358295620033043978E-07
 4690 0.979449524583753395E-07 0.359754640189580385E-07
 4700 0.907941581442610165E-07 0.361089394032259910E-07
 4710 0.886399186724190096E-07 0.362145513922353181E-07
 4720 0.793963405867311406E-07 0.363302053854275767E-07
 4730 0.103690929876726434E-06 0.364444033149782985E-07
 4740 0.117191841468525555E-06 0.365996340344604760E-07
 4750 0.121978227565920961E-06 0.367560403334569210E-07
 4760 0.113414479446079661E-06 0.369076312057115864E-07
 4770 0.118826117714505956E-06 0.370682476805556235E-07
 4780 0.132827626388810645E-06 0.372757707785947384E-07
 4790 0.103572491566900759E-06 0.374391779044283849E-07
 4800 0.109902250560126577E-06 0.376066021979696251E-07
 4810 0.102713754771357472E-06 0.377817157005072974E-07
 4820 0.987758303827214901E-07 0.379046497083009726E-07
 4830 0.951377087122171858E-07 0.380407287988537353E-07
 4840 0.951951020456423563E-07 0.381441122601751992E-07
 4850 0.905998687304798521E-07 0.382539636389264724E-07
 4860 0.680139168876164290E-07 0.383320543812047950E-07
 4870 0.916344168754786947E-07 0.384384293673607676E-07
 4880 0.116807629752965743E-06 0.385751984340375525E-07
 4890 0.109403601569225278E-06 0.387320769879575543E-07
 4900 0.987089336904498898E-07 0.388529582605552528E-07
 4910 0.111272275209532774E-06 0.389931878531873568E-07
 4920 0.105686078282536670E-06 0.391525578245187066E-07
 4930 0.930265454139684870E-07 0.392909451085139897E-07
 4940 0.108861300173687826E-06 0.394173512285902217E-07
 4950 0.113802619363947238E-06 0.395804678734776345E-07
 4960 0.112889075002728300E-06 0.397117540213428740E-07
 4970 0.844005142834708517E-07 0.398506795544597048E-07
 4980 0.814617147691865430E-07 0.399621550715385471E-07
 4990 0.101436625759081930E-06 0.400776075739489167E-07
 5000 0.609357709783313358E-07 0.401440187143343746E-07
