 
  **** **** ******  **  PROGRAM STARTED AT              Wed Oct 23 09:42:12 2002
 ***** ** ***  *** **   PROGRAM STARTED ON                                    ka
 **    ****   ******    PROGRAM STARTED BY                                gloria
 ***** **    ** ** **   PROGRAM PROCESS ID                                 26036
  **** **  *******  **  PROGRAM STARTED IN 
                            /home/chem/gloria/CP2K/CP2K/tests/KG/Argon/liquid_64
 
 CP2K| Program compiled at                          Tue Oct 22 14:04:01 DFT 2002
 CP2K| Program compiled on                                                    ka
 CP2K| Program compiled for                                           AIX-POWER2
 CP2K| Program name                                                           KG
 CP2K| Input file name                                                 input_md2
 CP2K| Project name                                                           ar
 CP2K| Default FFT library                                                 FFTSG
 CP2K| Default basis set file                                          BASIS_SET
 CP2K| Default external potential file                                 POTENTIAL
 CP2K| Default library path                                                   ./
 CP2K| Global print level                                                      1
 CP2K| Total number of processors                                              1
 CP2K| This output from processor                                              0
 
 CONTROL| Run type                                                            MD
 CONTROL| Unit type                                                       ATOMIC
 CONTROL| Use of symmetry                                                     No
 CONTROL| Path Integrals                                                      No
 CONTROL| Set file name                                                   ar.set
 CONTROL| Data file name                                                  ar.dat
 CONTROL| Topology file name                                              ar.top
 CONTROL| Print level                                                          1


 DFT| Force calculation                                                       NO
 DFT| Cutoffs: density                                               0.10000E-09
 DFT|          gradient                                              0.10000E-07
 DFT| XC mesh (PW density)                                               default
 FUNCTIONAL| Exchange Functional                                          SLATER
                                 Dirac/Slater local exchange; parameter=  0.6667
 FUNCTIONAL| Correlation Functional                                           PZ
                      J. P. Perdew and Alex Zunger, Phys. Rev. B 23, 5048 (1981)
                           *** WARNING : THIS FUNCTIONAL IS NOT FULLY TESTED ***
 FUNCTIONAL| Kinetic Energy Functional                                       LLP
                         H. Lee, C. Lee, R.G. Parr, Phys. Rev. A, 44, 768 (1991)
                           *** WARNING : THIS FUNCTIONAL IS NOT FULLY TESTED ***

 KG| Method:                                                            KG_NOPOL
 KG| Number of grid levels:                                                    1
 KG| Density cutoff [a.u.]:                                                 24.0
 KG| Grid level progression factor:                                          2.0
 KG| Relative density cutoff [a.u.]:                                        25.0
 KG| Interaction thresholds: eps_pgf_orb:                                1.0E-07
 KG|                         eps_core_charge:                            1.0E-08
 KG|                         eps_rho_gspace:                             1.0E-08
 KG|                         eps_rho_rspace:                             1.0E-08
 KG|                         eps_gvg_rspace:                             1.0E-07

 MOLECULE| Number of molecule types                                            1
 MOLECULE| Molecule type Molecule name           Molecules           Nose option
 MOLECULE|      1                   AR               64                  MASSIVE

 CELL| Reference Cell 
 CELL| Periodic in X direction                                               YES
 CELL| Periodic in Y direction                                               YES
 CELL| Periodic in Z direction                                               YES
 CELL| Poisson Solver                                                   STANDARD
 CELL| Parameters                                    14.4000    0.0000    0.0000
 CELL|                                                0.0000   14.4000    0.0000
 CELL|                                                0.0000    0.0000   14.4000

 MOLECULE| Molecule name                                                      AR
 MOLECULE| Number of atoms                                                     1
 MOLECULE| Number of atom types                                                1
 MOLECULE|                             Atom                  Weight       Charge
 MOLECULE|                             AR                  39.94800      0.00000
 FORCE FIELD| Non-bonded interaction parameters
 FORCE FIELD| LJ (12-6)      AR     AR                    epsilon [K]    78.1980
 FORCE FIELD|                                               sigma [A]     3.1660
 FORCE FIELD|                                                rcut [A]    10.0000

 MD| Molecular Dynamics Protocol 
 MD| Ensemble Type                                                           NVE
 MD| Restart Type                                                         POSVEL
 MD| Number of Time Steps                                                   5000
 MD| Time Step [fs]                                                         2.00
 MD| Temperature [K]                                                      120.00
 MD| Verlet buffer skin [Angstrom]                                          1.00
 MD| Print MD information every                                       10 step(s)
 MD| File type     Print frequency[steps]                             File names
 MD| Coordinates           10                                             ar.crd
 MD| Velocities            10                                             ar.vel
 MD| Energies              10                                            ar.ener
 MD| PotentialEnergies     10                                             ar.pot
 MD| Temperature           10                                            ar.temp
 MD| Pressure Tensor       10                                           ar.ptens
 MD| Dump                  10                                            ar.dump
 
 ATOM| No input section &COORD found 
 ATOM| Try to read default file                                           ar.dat
 ATOM| Box parameters [Angstrom]
 ATOM|                                    27.21205        0.00000        0.00000
 ATOM|                                     0.00000       27.21205        0.00000
 ATOM|                                     0.00000        0.00000       27.21205
 ATOM| Number of atoms read                                                   64



 BASIS SET INFORMATION (Unnormalised Gaussian-type functions)

  1. Atomic kind: AR

   - GTO basis set information

     GTO basis set name: KG-PDM-BARKER

     Set   Shell     n   l            Exponent    Coefficient

       1       1     1   0            0.705000      -7.668000
                                      0.390000       3.129000
                                      0.329000      -4.537000


 ATOMIC KIND INFORMATION

  1. Atomic kind: AR

     Number of atoms of this atomic kind in the cell:     64

   - Orbital basis set information

     Orbital basis set name: KG-PDM-BARKER

     Number of orbital shell sets:                 1
     Number of orbital shells:                     1
     Number of primitive Cartesian functions:      3
     Number of Cartesian basis functions:          1
     Number of spherical basis functions:          1

     Normalised Cartesian orbitals

     Set   Shell   Orbital            Exponent    Coefficient

       1       1    1s                0.705000      -0.815156
                                      0.390000       0.136860
                                      0.329000      -0.153758


   - Potential information

     Potential name: EPC

     Description: effective point charge potential

     Atomic Effective Charge:    9.076000

     Gaussian exponent of the core charge distribution:     0.440000


 RADII OF THE ORBITAL BASIS IN BOHR

  Kind   Label       Radius

     1   AR         6.580278


 RADII OF THE SHELL SETS OF THE ORBITAL BASIS IN BOHR

  Kind   Label   Set       Radius

     1   AR        1      6.580278


 RADII OF THE PRIMITIVE GAUSSIAN FUNCTIONS OF THE ORBITAL BASIS IN BOHR

  Kind   Label   Set       Radius

     1   AR        1      4.751069
                          6.019051
                          6.580278


 RADII OF THE CORE CHARGE DISTRIBUTIONS IN BOHR

  Kind   Label       Radius

     1   AR         6.338509
 
 ENERGY| Initialization proceeding
 

 ******************************** GO CP2K GO! **********************************
 INITIAL TOTAL POTENTIAL ENERGY[hartree=                          -0.1008393E+04
 INITIAL ELEC KINETIC ENERGY[hartree]  =                           0.0000000E+00
 INITIAL XC ENERGY[hartree]            =                           0.3585193E+03
 INITIAL HARTREE ENERGY[hartree]       =                           0.2813917E+02
 INITIAL CORE OVLP ENERGY[hartree]     =                           0.4833570E-01
 SELF-ENERGY[hartree]                  =                          -0.1395100E+04
 INITIAL KINETIC ENERGY[hartree]       =                           0.2438593E-01
 INITIAL TEMPERATURE[K]                =                           0.8148595E+02
 INITIAL VOLUME[bohr^3]                =                           0.2015041E+05
 INITIAL CELL LNTHS[bohr]   =      0.2721205E+02   0.2721205E+02   0.2721205E+02
 INITIAL CELL ANGLS[deg]    =      0.9000000E+02   0.9000000E+02   0.9000000E+02
 ******************************** GO CP2K GO! **********************************

 *******************************************************************************
 ENSEMBLE TYPE                =                                              NVE
 STEP NUMBER                  =                                               10
 CONSERVED QNTY               =                                   -0.1008369E+04

                                                   INSTANTANEOUS        AVERAGES
 {E-E0}/E0                    =                    0.2111700E-07   0.9653087E-08
 TOTAL POTENTIAL ENERGY[hartre=                   -0.1008411E+04  -0.1008400E+04
 ELEC KINETIC ENERGY[hartree] =                    0.0000000E+00   0.0000000E+00
 XC ENERGY[hartree]           =                    0.3585081E+03   0.3585151E+03
 CORE OVLP ENERGY[hartree]    =                    0.4248763E-01   0.4606179E-01
 HARTREE   ENERGY[hartree]    =                    0.2813869E+02   0.2813900E+02
 KINETIC ENERGY[hartree]      =                    0.4186056E-01   0.3107583E-01
 TEMPERATURE[K]               =                    0.1398777E+03   0.1038404E+03
 *******************************************************************************


 *******************************************************************************
 ENSEMBLE TYPE                =                                              NVE
 STEP NUMBER                  =                                               20
 CONSERVED QNTY               =                                   -0.1008369E+04

                                                   INSTANTANEOUS        AVERAGES
 {E-E0}/E0                    =                    0.1355810E-07   0.1493359E-07
 TOTAL POTENTIAL ENERGY[hartre=                   -0.1008441E+04  -0.1008414E+04
 ELEC KINETIC ENERGY[hartree] =                    0.0000000E+00   0.0000000E+00
 XC ENERGY[hartree]           =                    0.3584882E+03   0.3585060E+03
 CORE OVLP ENERGY[hartree]    =                    0.3307162E-01   0.4156533E-01
 HARTREE   ENERGY[hartree]    =                    0.2813735E+02   0.2813849E+02
 KINETIC ENERGY[hartree]      =                    0.7260485E-01   0.4516327E-01
 TEMPERATURE[K]               =                    0.2426102E+03   0.1509138E+03
 *******************************************************************************


 *******************************************************************************
 ENSEMBLE TYPE                =                                              NVE
 STEP NUMBER                  =                                               30
 CONSERVED QNTY               =                                   -0.1008369E+04

                                                   INSTANTANEOUS        AVERAGES
 {E-E0}/E0                    =                    0.4473149E-07   0.2431124E-07
 TOTAL POTENTIAL ENERGY[hartre=                   -0.1008461E+04  -0.1008427E+04
 ELEC KINETIC ENERGY[hartree] =                    0.0000000E+00   0.0000000E+00
 XC ENERGY[hartree]           =                    0.3584754E+03   0.3584975E+03
 CORE OVLP ENERGY[hartree]    =                    0.2770472E-01   0.3764148E-01
 HARTREE   ENERGY[hartree]    =                    0.2813613E+02   0.2813788E+02
 KINETIC ENERGY[hartree]      =                    0.9192444E-01   0.5821333E-01
 TEMPERATURE[K]               =                    0.3071669E+03   0.1945207E+03
 *******************************************************************************


 *******************************************************************************
 ENSEMBLE TYPE                =                                              NVE
 STEP NUMBER                  =                                               40
 CONSERVED QNTY               =                                   -0.1008369E+04

                                                   INSTANTANEOUS        AVERAGES
 {E-E0}/E0                    =                    0.1865619E-07   0.2306056E-07
 TOTAL POTENTIAL ENERGY[hartre=                   -0.1008470E+04  -0.1008437E+04
 ELEC KINETIC ENERGY[hartree] =                    0.0000000E+00   0.0000000E+00
 XC ENERGY[hartree]           =                    0.3584694E+03   0.3584910E+03
 CORE OVLP ENERGY[hartree]    =                    0.2515585E-01   0.3476875E-01
 HARTREE   ENERGY[hartree]    =                    0.2813539E+02   0.2813733E+02
 KINETIC ENERGY[hartree]      =                    0.1012171E+00   0.6805996E-01
 TEMPERATURE[K]               =                    0.3382185E+03   0.2274234E+03
 *******************************************************************************


 *******************************************************************************
 ENSEMBLE TYPE                =                                              NVE
 STEP NUMBER                  =                                               50
 CONSERVED QNTY               =                                   -0.1008369E+04

                                                   INSTANTANEOUS        AVERAGES
 {E-E0}/E0                    =                    0.3341123E-07   0.2338461E-07
 TOTAL POTENTIAL ENERGY[hartre=                   -0.1008474E+04  -0.1008444E+04
 ELEC KINETIC ENERGY[hartree] =                    0.0000000E+00   0.0000000E+00
 XC ENERGY[hartree]           =                    0.3584666E+03   0.3584864E+03
 CORE OVLP ENERGY[hartree]    =                    0.2396504E-01   0.3269981E-01
 HARTREE   ENERGY[hartree]    =                    0.2813500E+02   0.2813689E+02
 KINETIC ENERGY[hartree]      =                    0.1055697E+00   0.7522488E-01
 TEMPERATURE[K]               =                    0.3527629E+03   0.2513651E+03
 *******************************************************************************


 *******************************************************************************
 ENSEMBLE TYPE                =                                              NVE
 STEP NUMBER                  =                                               60
 CONSERVED QNTY               =                                   -0.1008369E+04

                                                   INSTANTANEOUS        AVERAGES
 {E-E0}/E0                    =                    0.4233887E-07   0.2472252E-07
 TOTAL POTENTIAL ENERGY[hartre=                   -0.1008476E+04  -0.1008449E+04
 ELEC KINETIC ENERGY[hartree] =                    0.0000000E+00   0.0000000E+00
 XC ENERGY[hartree]           =                    0.3584655E+03   0.3584830E+03
 CORE OVLP ENERGY[hartree]    =                    0.2334433E-01   0.3118307E-01
 HARTREE   ENERGY[hartree]    =                    0.2813482E+02   0.2813656E+02
 KINETIC ENERGY[hartree]      =                    0.1075320E+00   0.8048505E-01
 TEMPERATURE[K]               =                    0.3593199E+03   0.2689420E+03
 *******************************************************************************


 *******************************************************************************
 ENSEMBLE TYPE                =                                              NVE
 STEP NUMBER                  =                                               70
 CONSERVED QNTY               =                                   -0.1008369E+04

                                                   INSTANTANEOUS        AVERAGES
 {E-E0}/E0                    =                    0.5870677E-07   0.2905618E-07
 TOTAL POTENTIAL ENERGY[hartre=                   -0.1008477E+04  -0.1008453E+04
 ELEC KINETIC ENERGY[hartree] =                    0.0000000E+00   0.0000000E+00
 XC ENERGY[hartree]           =                    0.3584654E+03   0.3584804E+03
 CORE OVLP ENERGY[hartree]    =                    0.2314865E-01   0.3003980E-01
 HARTREE   ENERGY[hartree]    =                    0.2813483E+02   0.2813631E+02
 KINETIC ENERGY[hartree]      =                    0.1077216E+00   0.8439345E-01
 TEMPERATURE[K]               =                    0.3599535E+03   0.2820020E+03
 *******************************************************************************


 *******************************************************************************
 ENSEMBLE TYPE                =                                              NVE
 STEP NUMBER                  =                                               80
 CONSERVED QNTY               =                                   -0.1008369E+04

                                                   INSTANTANEOUS        AVERAGES
 {E-E0}/E0                    =                    0.5647305E-07   0.3226384E-07
 TOTAL POTENTIAL ENERGY[hartre=                   -0.1008474E+04  -0.1008456E+04
 ELEC KINETIC ENERGY[hartree] =                    0.0000000E+00   0.0000000E+00
 XC ENERGY[hartree]           =                    0.3584673E+03   0.3584787E+03
 CORE OVLP ENERGY[hartree]    =                    0.2387078E-01   0.2921784E-01
 HARTREE   ENERGY[hartree]    =                    0.2813500E+02   0.2813614E+02
 KINETIC ENERGY[hartree]      =                    0.1049559E+00   0.8715202E-01
 TEMPERATURE[K]               =                    0.3507119E+03   0.2912198E+03
 *******************************************************************************


 *******************************************************************************
 ENSEMBLE TYPE                =                                              NVE
 STEP NUMBER                  =                                               90
 CONSERVED QNTY               =                                   -0.1008369E+04

                                                   INSTANTANEOUS        AVERAGES
 {E-E0}/E0                    =                    0.3612483E-07   0.3457777E-07
 TOTAL POTENTIAL ENERGY[hartre=                   -0.1008469E+04  -0.1008458E+04
 ELEC KINETIC ENERGY[hartree] =                    0.0000000E+00   0.0000000E+00
 XC ENERGY[hartree]           =                    0.3584703E+03   0.3584776E+03
 CORE OVLP ENERGY[hartree]    =                    0.2514694E-01   0.2870173E-01
 HARTREE   ENERGY[hartree]    =                    0.2813522E+02   0.2813602E+02
 KINETIC ENERGY[hartree]      =                    0.1004919E+00   0.8885317E-01
 TEMPERATURE[K]               =                    0.3357951E+03   0.2969043E+03
 *******************************************************************************


 *******************************************************************************
 ENSEMBLE TYPE                =                                              NVE
 STEP NUMBER                  =                                              100
 CONSERVED QNTY               =                                   -0.1008369E+04

                                                   INSTANTANEOUS        AVERAGES
 {E-E0}/E0                    =                    0.3284947E-07   0.3510050E-07
 TOTAL POTENTIAL ENERGY[hartre=                   -0.1008467E+04  -0.1008459E+04
 ELEC KINETIC ENERGY[hartree] =                    0.0000000E+00   0.0000000E+00
 XC ENERGY[hartree]           =                    0.3584719E+03   0.3584770E+03
 CORE OVLP ENERGY[hartree]    =                    0.2587070E-01   0.2839407E-01
 HARTREE   ENERGY[hartree]    =                    0.2813535E+02   0.2813595E+02
 KINETIC ENERGY[hartree]      =                    0.9806576E-01   0.8986079E-01
 TEMPERATURE[K]               =                    0.3276883E+03   0.3002712E+03
 *******************************************************************************


 *******************************************************************************
 ENSEMBLE TYPE                =                                              NVE
 STEP NUMBER                  =                                              110
 CONSERVED QNTY               =                                   -0.1008369E+04

                                                   INSTANTANEOUS        AVERAGES
 {E-E0}/E0                    =                    0.3172979E-07   0.3449958E-07
 TOTAL POTENTIAL ENERGY[hartre=                   -0.1008468E+04  -0.1008459E+04
 ELEC KINETIC ENERGY[hartree] =                    0.0000000E+00   0.0000000E+00
 XC ENERGY[hartree]           =                    0.3584715E+03   0.3584765E+03
 CORE OVLP ENERGY[hartree]    =                    0.2577085E-01   0.2816341E-01
 HARTREE   ENERGY[hartree]    =                    0.2813532E+02   0.2813590E+02
 KINETIC ENERGY[hartree]      =                    0.9862989E-01   0.9061673E-01
 TEMPERATURE[K]               =                    0.3295733E+03   0.3027972E+03
 *******************************************************************************


 *******************************************************************************
 ENSEMBLE TYPE                =                                              NVE
 STEP NUMBER                  =                                              120
 CONSERVED QNTY               =                                   -0.1008369E+04

                                                   INSTANTANEOUS        AVERAGES
 {E-E0}/E0                    =                    0.2322379E-07   0.3303942E-07
 TOTAL POTENTIAL ENERGY[hartre=                   -0.1008470E+04  -0.1008460E+04
 ELEC KINETIC ENERGY[hartree] =                    0.0000000E+00   0.0000000E+00
 XC ENERGY[hartree]           =                    0.3584699E+03   0.3584760E+03
 CORE OVLP ENERGY[hartree]    =                    0.2531944E-01   0.2794668E-01
 HARTREE   ENERGY[hartree]    =                    0.2813515E+02   0.2813584E+02
 KINETIC ENERGY[hartree]      =                    0.1007790E+00   0.9137104E-01
 TEMPERATURE[K]               =                    0.3367545E+03   0.3053177E+03
 *******************************************************************************


 *******************************************************************************
 ENSEMBLE TYPE                =                                              NVE
 STEP NUMBER                  =                                              130
 CONSERVED QNTY               =                                   -0.1008369E+04

                                                   INSTANTANEOUS        AVERAGES
 {E-E0}/E0                    =                    0.3119411E-07   0.3330248E-07
 TOTAL POTENTIAL ENERGY[hartre=                   -0.1008474E+04  -0.1008461E+04
 ELEC KINETIC ENERGY[hartree] =                    0.0000000E+00   0.0000000E+00
 XC ENERGY[hartree]           =                    0.3584669E+03   0.3584754E+03
 CORE OVLP ENERGY[hartree]    =                    0.2397942E-01   0.2769434E-01
 HARTREE   ENERGY[hartree]    =                    0.2813493E+02   0.2813578E+02
 KINETIC ENERGY[hartree]      =                    0.1053912E+00   0.9227407E-01
 TEMPERATURE[K]               =                    0.3521662E+03   0.3083352E+03
 *******************************************************************************


 *******************************************************************************
 ENSEMBLE TYPE                =                                              NVE
 STEP NUMBER                  =                                              140
 CONSERVED QNTY               =                                   -0.1008369E+04

                                                   INSTANTANEOUS        AVERAGES
 {E-E0}/E0                    =                    0.2291876E-07   0.3293828E-07
 TOTAL POTENTIAL ENERGY[hartre=                   -0.1008480E+04  -0.1008462E+04
 ELEC KINETIC ENERGY[hartree] =                    0.0000000E+00   0.0000000E+00
 XC ENERGY[hartree]           =                    0.3584633E+03   0.3584747E+03
 CORE OVLP ENERGY[hartree]    =                    0.2235772E-01   0.2736240E-01
 HARTREE   ENERGY[hartree]    =                    0.2813469E+02   0.2813571E+02
 KINETIC ENERGY[hartree]      =                    0.1107962E+00   0.9343086E-01
 TEMPERATURE[K]               =                    0.3702271E+03   0.3122007E+03
 *******************************************************************************


 *******************************************************************************
 ENSEMBLE TYPE                =                                              NVE
 STEP NUMBER                  =                                              150
 CONSERVED QNTY               =                                   -0.1008369E+04

                                                   INSTANTANEOUS        AVERAGES
 {E-E0}/E0                    =                    0.1007120E-07   0.3201446E-07
 TOTAL POTENTIAL ENERGY[hartre=                   -0.1008483E+04  -0.1008464E+04
 ELEC KINETIC ENERGY[hartree] =                    0.0000000E+00   0.0000000E+00
 XC ENERGY[hartree]           =                    0.3584612E+03   0.3584738E+03
 CORE OVLP ENERGY[hartree]    =                    0.2143739E-01   0.2699108E-01
 HARTREE   ENERGY[hartree]    =                    0.2813451E+02   0.2813563E+02
 KINETIC ENERGY[hartree]      =                    0.1140625E+00   0.9472219E-01
 TEMPERATURE[K]               =                    0.3811416E+03   0.3165157E+03
 *******************************************************************************


 *******************************************************************************
 ENSEMBLE TYPE                =                                              NVE
 STEP NUMBER                  =                                              160
 CONSERVED QNTY               =                                   -0.1008369E+04

                                                   INSTANTANEOUS        AVERAGES
 {E-E0}/E0                    =                    0.2152443E-07   0.3075351E-07
 TOTAL POTENTIAL ENERGY[hartre=                   -0.1008484E+04  -0.1008465E+04
 ELEC KINETIC ENERGY[hartree] =                    0.0000000E+00   0.0000000E+00
 XC ENERGY[hartree]           =                    0.3584607E+03   0.3584730E+03
 CORE OVLP ENERGY[hartree]    =                    0.2123321E-01   0.2663279E-01
 HARTREE   ENERGY[hartree]    =                    0.2813441E+02   0.2813556E+02
 KINETIC ENERGY[hartree]      =                    0.1148845E+00   0.9597247E-01
 TEMPERATURE[K]               =                    0.3838885E+03   0.3206935E+03
 *******************************************************************************


 *******************************************************************************
 ENSEMBLE TYPE                =                                              NVE
 STEP NUMBER                  =                                              170
 CONSERVED QNTY               =                                   -0.1008369E+04

                                                   INSTANTANEOUS        AVERAGES
 {E-E0}/E0                    =                    0.1075036E-07   0.2955118E-07
 TOTAL POTENTIAL ENERGY[hartre=                   -0.1008482E+04  -0.1008466E+04
 ELEC KINETIC ENERGY[hartree] =                    0.0000000E+00   0.0000000E+00
 XC ENERGY[hartree]           =                    0.3584617E+03   0.3584723E+03
 CORE OVLP ENERGY[hartree]    =                    0.2180639E-01   0.2633107E-01
 HARTREE   ENERGY[hartree]    =                    0.2813436E+02   0.2813549E+02
 KINETIC ENERGY[hartree]      =                    0.1133568E+00   0.9704299E-01
 TEMPERATURE[K]               =                    0.3787834E+03   0.3242707E+03
 *******************************************************************************


 *******************************************************************************
 ENSEMBLE TYPE                =                                              NVE
 STEP NUMBER                  =                                              180
 CONSERVED QNTY               =                                   -0.1008369E+04

                                                   INSTANTANEOUS        AVERAGES
 {E-E0}/E0                    =                    0.4917452E-07   0.2932619E-07
 TOTAL POTENTIAL ENERGY[hartre=                   -0.1008481E+04  -0.1008467E+04
 ELEC KINETIC ENERGY[hartree] =                    0.0000000E+00   0.0000000E+00
 XC ENERGY[hartree]           =                    0.3584621E+03   0.3584717E+03
 CORE OVLP ENERGY[hartree]    =                    0.2216669E-01   0.2609547E-01
 HARTREE   ENERGY[hartree]    =                    0.2813426E+02   0.2813542E+02
 KINETIC ENERGY[hartree]      =                    0.1125930E+00   0.9791052E-01
 TEMPERATURE[K]               =                    0.3762312E+03   0.3271695E+03
 *******************************************************************************


 *******************************************************************************
 ENSEMBLE TYPE                =                                              NVE
 STEP NUMBER                  =                                              190
 CONSERVED QNTY               =                                   -0.1008369E+04

                                                   INSTANTANEOUS        AVERAGES
 {E-E0}/E0                    =                    0.3125318E-07   0.2873997E-07
 TOTAL POTENTIAL ENERGY[hartre=                   -0.1008485E+04  -0.1008468E+04
 ELEC KINETIC ENERGY[hartree] =                    0.0000000E+00   0.0000000E+00
 XC ENERGY[hartree]           =                    0.3584602E+03   0.3584712E+03
 CORE OVLP ENERGY[hartree]    =                    0.2117956E-01   0.2586531E-01
 HARTREE   ENERGY[hartree]    =                    0.2813410E+02   0.2813536E+02
 KINETIC ENERGY[hartree]      =                    0.1157010E+00   0.9875905E-01
 TEMPERATURE[K]               =                    0.3866165E+03   0.3300049E+03
 *******************************************************************************


 *******************************************************************************
 ENSEMBLE TYPE                =                                              NVE
 STEP NUMBER                  =                                              200
 CONSERVED QNTY               =                                   -0.1008369E+04

                                                   INSTANTANEOUS        AVERAGES
 {E-E0}/E0                    =                    0.6681119E-08   0.2819959E-07
 TOTAL POTENTIAL ENERGY[hartre=                   -0.1008487E+04  -0.1008469E+04
 ELEC KINETIC ENERGY[hartree] =                    0.0000000E+00   0.0000000E+00
 XC ENERGY[hartree]           =                    0.3584585E+03   0.3584706E+03
 CORE OVLP ENERGY[hartree]    =                    0.2029491E-01   0.2560073E-01
 HARTREE   ENERGY[hartree]    =                    0.2813398E+02   0.2813529E+02
 KINETIC ENERGY[hartree]      =                    0.1184441E+00   0.9969807E-01
 TEMPERATURE[K]               =                    0.3957830E+03   0.3331427E+03
 *******************************************************************************


 *******************************************************************************
 ENSEMBLE TYPE                =                                              NVE
 STEP NUMBER                  =                                              210
 CONSERVED QNTY               =                                   -0.1008369E+04

                                                   INSTANTANEOUS        AVERAGES
 {E-E0}/E0                    =                    0.6086157E-09   0.2709858E-07
 TOTAL POTENTIAL ENERGY[hartre=                   -0.1008486E+04  -0.1008469E+04
 ELEC KINETIC ENERGY[hartree] =                    0.0000000E+00   0.0000000E+00
 XC ENERGY[hartree]           =                    0.3584593E+03   0.3584700E+03
 CORE OVLP ENERGY[hartree]    =                    0.2086344E-01   0.2535999E-01
 HARTREE   ENERGY[hartree]    =                    0.2813399E+02   0.2813523E+02
 KINETIC ENERGY[hartree]      =                    0.1170418E+00   0.1005639E+00
 TEMPERATURE[K]               =                    0.3910969E+03   0.3360359E+03
 *******************************************************************************


 *******************************************************************************
 ENSEMBLE TYPE                =                                              NVE
 STEP NUMBER                  =                                              220
 CONSERVED QNTY               =                                   -0.1008369E+04

                                                   INSTANTANEOUS        AVERAGES
 {E-E0}/E0                    =                    0.1130709E-07   0.2616248E-07
 TOTAL POTENTIAL ENERGY[hartre=                   -0.1008483E+04  -0.1008470E+04
 ELEC KINETIC ENERGY[hartree] =                    0.0000000E+00   0.0000000E+00
 XC ENERGY[hartree]           =                    0.3584611E+03   0.3584696E+03
 CORE OVLP ENERGY[hartree]    =                    0.2147553E-01   0.2517034E-01
 HARTREE   ENERGY[hartree]    =                    0.2813422E+02   0.2813518E+02
 KINETIC ENERGY[hartree]      =                    0.1143896E+00   0.1012534E+00
 TEMPERATURE[K]               =                    0.3822346E+03   0.3383397E+03
 *******************************************************************************


 *******************************************************************************
 ENSEMBLE TYPE                =                                              NVE
 STEP NUMBER                  =                                              230
 CONSERVED QNTY               =                                   -0.1008369E+04

                                                   INSTANTANEOUS        AVERAGES
 {E-E0}/E0                    =                    0.3586913E-08   0.2537664E-07
 TOTAL POTENTIAL ENERGY[hartre=                   -0.1008476E+04  -0.1008471E+04
 ELEC KINETIC ENERGY[hartree] =                    0.0000000E+00   0.0000000E+00
 XC ENERGY[hartree]           =                    0.3584661E+03   0.3584693E+03
 CORE OVLP ENERGY[hartree]    =                    0.2373258E-01   0.2505413E-01
 HARTREE   ENERGY[hartree]    =                    0.2813456E+02   0.2813514E+02
 KINETIC ENERGY[hartree]      =                    0.1067794E+00   0.1016660E+00
 TEMPERATURE[K]               =                    0.3568051E+03   0.3397184E+03
 *******************************************************************************


 *******************************************************************************
 ENSEMBLE TYPE                =                                              NVE
 STEP NUMBER                  =                                              240
 CONSERVED QNTY               =                                   -0.1008369E+04

                                                   INSTANTANEOUS        AVERAGES
 {E-E0}/E0                    =                    0.9287453E-08   0.2506418E-07
 TOTAL POTENTIAL ENERGY[hartre=                   -0.1008469E+04  -0.1008471E+04
 ELEC KINETIC ENERGY[hartree] =                    0.0000000E+00   0.0000000E+00
 XC ENERGY[hartree]           =                    0.3584706E+03   0.3584693E+03
 CORE OVLP ENERGY[hartree]    =                    0.2607726E-01   0.2506476E-01
 HARTREE   ENERGY[hartree]    =                    0.2813478E+02   0.2813513E+02
 KINETIC ENERGY[hartree]      =                    0.9977701E-01   0.1016851E+00
 TEMPERATURE[K]               =                    0.3334064E+03   0.3397822E+03
 *******************************************************************************


 *******************************************************************************
 ENSEMBLE TYPE                =                                              NVE
 STEP NUMBER                  =                                              250
 CONSERVED QNTY               =                                   -0.1008369E+04

                                                   INSTANTANEOUS        AVERAGES
 {E-E0}/E0                    =                    0.1516662E-07   0.2466829E-07
 TOTAL POTENTIAL ENERGY[hartre=                   -0.1008473E+04  -0.1008471E+04
 ELEC KINETIC ENERGY[hartree] =                    0.0000000E+00   0.0000000E+00
 XC ENERGY[hartree]           =                    0.3584681E+03   0.3584693E+03
 CORE OVLP ENERGY[hartree]    =                    0.2453830E-01   0.2507890E-01
 HARTREE   ENERGY[hartree]    =                    0.2813481E+02   0.2813511E+02
 KINETIC ENERGY[hartree]      =                    0.1037316E+00   0.1016719E+00
 TEMPERATURE[K]               =                    0.3466207E+03   0.3397383E+03
 *******************************************************************************


 *******************************************************************************
 ENSEMBLE TYPE                =                                              NVE
 STEP NUMBER                  =                                              260
 CONSERVED QNTY               =                                   -0.1008369E+04

                                                   INSTANTANEOUS        AVERAGES
 {E-E0}/E0                    =                    0.2035468E-07   0.2468948E-07
 TOTAL POTENTIAL ENERGY[hartre=                   -0.1008478E+04  -0.1008471E+04
 ELEC KINETIC ENERGY[hartree] =                    0.0000000E+00   0.0000000E+00
 XC ENERGY[hartree]           =                    0.3584648E+03   0.3584692E+03
 CORE OVLP ENERGY[hartree]    =                    0.2298145E-01   0.2502108E-01
 HARTREE   ENERGY[hartree]    =                    0.2813465E+02   0.2813510E+02
 KINETIC ENERGY[hartree]      =                    0.1087517E+00   0.1018669E+00
 TEMPERATURE[K]               =                    0.3633955E+03   0.3403899E+03
 *******************************************************************************


 *******************************************************************************
 ENSEMBLE TYPE                =                                              NVE
 STEP NUMBER                  =                                              270
 CONSERVED QNTY               =                                   -0.1008369E+04

                                                   INSTANTANEOUS        AVERAGES
 {E-E0}/E0                    =                    0.1268537E-07   0.2430986E-07
 TOTAL POTENTIAL ENERGY[hartre=                   -0.1008480E+04  -0.1008471E+04
 ELEC KINETIC ENERGY[hartree] =                    0.0000000E+00   0.0000000E+00
 XC ENERGY[hartree]           =                    0.3584631E+03   0.3584690E+03
 CORE OVLP ENERGY[hartree]    =                    0.2222937E-01   0.2492953E-01
 HARTREE   ENERGY[hartree]    =                    0.2813456E+02   0.2813508E+02
 KINETIC ENERGY[hartree]      =                    0.1113377E+00   0.1021786E+00
 TEMPERATURE[K]               =                    0.3720365E+03   0.3414315E+03
 *******************************************************************************


 *******************************************************************************
 ENSEMBLE TYPE                =                                              NVE
 STEP NUMBER                  =                                              280
 CONSERVED QNTY               =                                   -0.1008369E+04

                                                   INSTANTANEOUS        AVERAGES
 {E-E0}/E0                    =                    0.3821030E-07   0.2444466E-07
 TOTAL POTENTIAL ENERGY[hartre=                   -0.1008481E+04  -0.1008471E+04
 ELEC KINETIC ENERGY[hartree] =                    0.0000000E+00   0.0000000E+00
 XC ENERGY[hartree]           =                    0.3584627E+03   0.3584688E+03
 CORE OVLP ENERGY[hartree]    =                    0.2197308E-01   0.2482490E-01
 HARTREE   ENERGY[hartree]    =                    0.2813464E+02   0.2813506E+02
 KINETIC ENERGY[hartree]      =                    0.1119129E+00   0.1025278E+00
 TEMPERATURE[K]               =                    0.3739586E+03   0.3425982E+03
 *******************************************************************************


 *******************************************************************************
 ENSEMBLE TYPE                =                                              NVE
 STEP NUMBER                  =                                              290
 CONSERVED QNTY               =                                   -0.1008369E+04

                                                   INSTANTANEOUS        AVERAGES
 {E-E0}/E0                    =                    0.2116346E-07   0.2411437E-07
 TOTAL POTENTIAL ENERGY[hartre=                   -0.1008477E+04  -0.1008472E+04
 ELEC KINETIC ENERGY[hartree] =                    0.0000000E+00   0.0000000E+00
 XC ENERGY[hartree]           =                    0.3584654E+03   0.3584686E+03
 CORE OVLP ENERGY[hartree]    =                    0.2313651E-01   0.2474441E-01
 HARTREE   ENERGY[hartree]    =                    0.2813490E+02   0.2813505E+02
 KINETIC ENERGY[hartree]      =                    0.1077627E+00   0.1027876E+00
 TEMPERATURE[K]               =                    0.3600907E+03   0.3434665E+03
 *******************************************************************************


 *******************************************************************************
 ENSEMBLE TYPE                =                                              NVE
 STEP NUMBER                  =                                              300
 CONSERVED QNTY               =                                   -0.1008369E+04

                                                   INSTANTANEOUS        AVERAGES
 {E-E0}/E0                    =                    0.6863754E-09   0.2357288E-07
 TOTAL POTENTIAL ENERGY[hartre=                   -0.1008469E+04  -0.1008472E+04
 ELEC KINETIC ENERGY[hartree] =                    0.0000000E+00   0.0000000E+00
 XC ENERGY[hartree]           =                    0.3584702E+03   0.3584686E+03
 CORE OVLP ENERGY[hartree]    =                    0.2534896E-01   0.2472998E-01
 HARTREE   ENERGY[hartree]    =                    0.2813526E+02   0.2813505E+02
 KINETIC ENERGY[hartree]      =                    0.1003733E+00   0.1028220E+00
 TEMPERATURE[K]               =                    0.3353990E+03   0.3435815E+03
 *******************************************************************************


 *******************************************************************************
 ENSEMBLE TYPE                =                                              NVE
 STEP NUMBER                  =                                              310
 CONSERVED QNTY               =                                   -0.1008369E+04

                                                   INSTANTANEOUS        AVERAGES
 {E-E0}/E0                    =                    0.9601233E-08   0.2319702E-07
 TOTAL POTENTIAL ENERGY[hartre=                   -0.1008463E+04  -0.1008471E+04
 ELEC KINETIC ENERGY[hartree] =                    0.0000000E+00   0.0000000E+00
 XC ENERGY[hartree]           =                    0.3584741E+03   0.3584687E+03
 CORE OVLP ENERGY[hartree]    =                    0.2713199E-01   0.2478526E-01
 HARTREE   ENERGY[hartree]    =                    0.2813555E+02   0.2813507E+02
 KINETIC ENERGY[hartree]      =                    0.9436451E-01   0.1026250E+00
 TEMPERATURE[K]               =                    0.3153205E+03   0.3429231E+03
 *******************************************************************************


 *******************************************************************************
 ENSEMBLE TYPE                =                                              NVE
 STEP NUMBER                  =                                              320
 CONSERVED QNTY               =                                   -0.1008369E+04

                                                   INSTANTANEOUS        AVERAGES
 {E-E0}/E0                    =                    0.3452973E-07   0.2290229E-07
 TOTAL POTENTIAL ENERGY[hartre=                   -0.1008462E+04  -0.1008471E+04
 ELEC KINETIC ENERGY[hartree] =                    0.0000000E+00   0.0000000E+00
 XC ENERGY[hartree]           =                    0.3584751E+03   0.3584689E+03
 CORE OVLP ENERGY[hartree]    =                    0.2746696E-01   0.2486717E-01
 HARTREE   ENERGY[hartree]    =                    0.2813566E+02   0.2813508E+02
 KINETIC ENERGY[hartree]      =                    0.9297057E-01   0.1023328E+00
 TEMPERATURE[K]               =                    0.3106626E+03   0.3419465E+03
 *******************************************************************************


 *******************************************************************************
 ENSEMBLE TYPE                =                                              NVE
 STEP NUMBER                  =                                              330
 CONSERVED QNTY               =                                   -0.1008369E+04

                                                   INSTANTANEOUS        AVERAGES
 {E-E0}/E0                    =                    0.3049404E-07   0.2260653E-07
 TOTAL POTENTIAL ENERGY[hartre=                   -0.1008463E+04  -0.1008471E+04
 ELEC KINETIC ENERGY[hartree] =                    0.0000000E+00   0.0000000E+00
 XC ENERGY[hartree]           =                    0.3584740E+03   0.3584691E+03
 CORE OVLP ENERGY[hartree]    =                    0.2711480E-01   0.2494152E-01
 HARTREE   ENERGY[hartree]    =                    0.2813555E+02   0.2813510E+02
 KINETIC ENERGY[hartree]      =                    0.9452835E-01   0.1020695E+00
 TEMPERATURE[K]               =                    0.3158679E+03   0.3410668E+03
 *******************************************************************************


 *******************************************************************************
 ENSEMBLE TYPE                =                                              NVE
 STEP NUMBER                  =                                              340
 CONSERVED QNTY               =                                   -0.1008369E+04

                                                   INSTANTANEOUS        AVERAGES
 {E-E0}/E0                    =                    0.3510422E-07   0.2271654E-07
 TOTAL POTENTIAL ENERGY[hartre=                   -0.1008467E+04  -0.1008471E+04
 ELEC KINETIC ENERGY[hartree] =                    0.0000000E+00   0.0000000E+00
 XC ENERGY[hartree]           =                    0.3584715E+03   0.3584692E+03
 CORE OVLP ENERGY[hartree]    =                    0.2602482E-01   0.2498949E-01
 HARTREE   ENERGY[hartree]    =                    0.2813533E+02   0.2813511E+02
 KINETIC ENERGY[hartree]      =                    0.9828564E-01   0.1019032E+00
 TEMPERATURE[K]               =                    0.3284230E+03   0.3405110E+03
 *******************************************************************************


 *******************************************************************************
 ENSEMBLE TYPE                =                                              NVE
 STEP NUMBER                  =                                              350
 CONSERVED QNTY               =                                   -0.1008369E+04

                                                   INSTANTANEOUS        AVERAGES
 {E-E0}/E0                    =                    0.2401894E-07   0.2307399E-07
 TOTAL POTENTIAL ENERGY[hartre=                   -0.1008471E+04  -0.1008471E+04
 ELEC KINETIC ENERGY[hartree] =                    0.0000000E+00   0.0000000E+00
 XC ENERGY[hartree]           =                    0.3584688E+03   0.3584692E+03
 CORE OVLP ENERGY[hartree]    =                    0.2480326E-01   0.2499894E-01
 HARTREE   ENERGY[hartree]    =                    0.2813511E+02   0.2813511E+02
 KINETIC ENERGY[hartree]      =                    0.1024331E+00   0.1018681E+00
 TEMPERATURE[K]               =                    0.3422817E+03   0.3403939E+03
 *******************************************************************************


 *******************************************************************************
 ENSEMBLE TYPE                =                                              NVE
 STEP NUMBER                  =                                              360
 CONSERVED QNTY               =                                   -0.1008369E+04

                                                   INSTANTANEOUS        AVERAGES
 {E-E0}/E0                    =                    0.3897553E-07   0.2334881E-07
 TOTAL POTENTIAL ENERGY[hartre=                   -0.1008474E+04  -0.1008471E+04
 ELEC KINETIC ENERGY[hartree] =                    0.0000000E+00   0.0000000E+00
 XC ENERGY[hartree]           =                    0.3584673E+03   0.3584692E+03
 CORE OVLP ENERGY[hartree]    =                    0.2417398E-01   0.2498223E-01
 HARTREE   ENERGY[hartree]    =                    0.2813499E+02   0.2813511E+02
 KINETIC ENERGY[hartree]      =                    0.1047290E+00   0.1019242E+00
 TEMPERATURE[K]               =                    0.3499537E+03   0.3405814E+03
 *******************************************************************************


 *******************************************************************************
 ENSEMBLE TYPE                =                                              NVE
 STEP NUMBER                  =                                              370
 CONSERVED QNTY               =                                   -0.1008369E+04

                                                   INSTANTANEOUS        AVERAGES
 {E-E0}/E0                    =                    0.2134627E-07   0.2366678E-07
 TOTAL POTENTIAL ENERGY[hartre=                   -0.1008473E+04  -0.1008471E+04
 ELEC KINETIC ENERGY[hartree] =                    0.0000000E+00   0.0000000E+00
 XC ENERGY[hartree]           =                    0.3584675E+03   0.3584691E+03
 CORE OVLP ENERGY[hartree]    =                    0.2416279E-01   0.2495938E-01
 HARTREE   ENERGY[hartree]    =                    0.2813498E+02   0.2813511E+02
 KINETIC ENERGY[hartree]      =                    0.1045915E+00   0.1020015E+00
 TEMPERATURE[K]               =                    0.3494941E+03   0.3408395E+03
 *******************************************************************************


 *******************************************************************************
 ENSEMBLE TYPE                =                                              NVE
 STEP NUMBER                  =                                              380
 CONSERVED QNTY               =                                   -0.1008369E+04

                                                   INSTANTANEOUS        AVERAGES
 {E-E0}/E0                    =                    0.3959614E-07   0.2405368E-07
 TOTAL POTENTIAL ENERGY[hartre=                   -0.1008473E+04  -0.1008471E+04
 ELEC KINETIC ENERGY[hartree] =                    0.0000000E+00   0.0000000E+00
 XC ENERGY[hartree]           =                    0.3584680E+03   0.3584691E+03
 CORE OVLP ENERGY[hartree]    =                    0.2432958E-01   0.2494048E-01
 HARTREE   ENERGY[hartree]    =                    0.2813504E+02   0.2813510E+02
 KINETIC ENERGY[hartree]      =                    0.1037537E+00   0.1020585E+00
 TEMPERATURE[K]               =                    0.3466947E+03   0.3410299E+03
 *******************************************************************************


 *******************************************************************************
 ENSEMBLE TYPE                =                                              NVE
 STEP NUMBER                  =                                              390
 CONSERVED QNTY               =                                   -0.1008369E+04

                                                   INSTANTANEOUS        AVERAGES
 {E-E0}/E0                    =                    0.2817294E-07   0.2443224E-07
 TOTAL POTENTIAL ENERGY[hartre=                   -0.1008472E+04  -0.1008471E+04
 ELEC KINETIC ENERGY[hartree] =                    0.0000000E+00   0.0000000E+00
 XC ENERGY[hartree]           =                    0.3584684E+03   0.3584691E+03
 CORE OVLP ENERGY[hartree]    =                    0.2460513E-01   0.2492923E-01
 HARTREE   ENERGY[hartree]    =                    0.2813504E+02   0.2813510E+02
 KINETIC ENERGY[hartree]      =                    0.1031192E+00   0.1020896E+00
 TEMPERATURE[K]               =                    0.3445743E+03   0.3411339E+03
 *******************************************************************************


 *******************************************************************************
 ENSEMBLE TYPE                =                                              NVE
 STEP NUMBER                  =                                              400
 CONSERVED QNTY               =                                   -0.1008369E+04

                                                   INSTANTANEOUS        AVERAGES
 {E-E0}/E0                    =                    0.2625634E-07   0.2472690E-07
 TOTAL POTENTIAL ENERGY[hartre=                   -0.1008475E+04  -0.1008471E+04
 ELEC KINETIC ENERGY[hartree] =                    0.0000000E+00   0.0000000E+00
 XC ENERGY[hartree]           =                    0.3584665E+03   0.3584690E+03
 CORE OVLP ENERGY[hartree]    =                    0.2379459E-01   0.2491336E-01
 HARTREE   ENERGY[hartree]    =                    0.2813492E+02   0.2813510E+02
 KINETIC ENERGY[hartree]      =                    0.1059189E+00   0.1021449E+00
 TEMPERATURE[K]               =                    0.3539296E+03   0.3413187E+03
 *******************************************************************************


 *******************************************************************************
 ENSEMBLE TYPE                =                                              NVE
 STEP NUMBER                  =                                              410
 CONSERVED QNTY               =                                   -0.1008369E+04

                                                   INSTANTANEOUS        AVERAGES
 {E-E0}/E0                    =                    0.2626583E-07   0.2455419E-07
 TOTAL POTENTIAL ENERGY[hartre=                   -0.1008479E+04  -0.1008471E+04
 ELEC KINETIC ENERGY[hartree] =                    0.0000000E+00   0.0000000E+00
 XC ENERGY[hartree]           =                    0.3584639E+03   0.3584689E+03
 CORE OVLP ENERGY[hartree]    =                    0.2250061E-01   0.2486644E-01
 HARTREE   ENERGY[hartree]    =                    0.2813484E+02   0.2813509E+02
 KINETIC ENERGY[hartree]      =                    0.1099149E+00   0.1022971E+00
 TEMPERATURE[K]               =                    0.3672822E+03   0.3418272E+03
 *******************************************************************************


 *******************************************************************************
 ENSEMBLE TYPE                =                                              NVE
 STEP NUMBER                  =                                              420
 CONSERVED QNTY               =                                   -0.1008369E+04

                                                   INSTANTANEOUS        AVERAGES
 {E-E0}/E0                    =                    0.4526497E-08   0.2438735E-07
 TOTAL POTENTIAL ENERGY[hartre=                   -0.1008476E+04  -0.1008471E+04
 ELEC KINETIC ENERGY[hartree] =                    0.0000000E+00   0.0000000E+00
 XC ENERGY[hartree]           =                    0.3584659E+03   0.3584688E+03
 CORE OVLP ENERGY[hartree]    =                    0.2338448E-01   0.2481652E-01
 HARTREE   ENERGY[hartree]    =                    0.2813502E+02   0.2813509E+02
 KINETIC ENERGY[hartree]      =                    0.1069291E+00   0.1024574E+00
 TEMPERATURE[K]               =                    0.3573053E+03   0.3423631E+03
 *******************************************************************************


 *******************************************************************************
 ENSEMBLE TYPE                =                                              NVE
 STEP NUMBER                  =                                              430
 CONSERVED QNTY               =                                   -0.1008369E+04

                                                   INSTANTANEOUS        AVERAGES
 {E-E0}/E0                    =                    0.3253953E-07   0.2429786E-07
 TOTAL POTENTIAL ENERGY[hartre=                   -0.1008466E+04  -0.1008471E+04
 ELEC KINETIC ENERGY[hartree] =                    0.0000000E+00   0.0000000E+00
 XC ENERGY[hartree]           =                    0.3584727E+03   0.3584688E+03
 CORE OVLP ENERGY[hartree]    =                    0.2635222E-01   0.2481839E-01
 HARTREE   ENERGY[hartree]    =                    0.2813552E+02   0.2813509E+02
 KINETIC ENERGY[hartree]      =                    0.9663531E-01   0.1024390E+00
 TEMPERATURE[K]               =                    0.3229084E+03   0.3423015E+03
 *******************************************************************************


 *******************************************************************************
 ENSEMBLE TYPE                =                                              NVE
 STEP NUMBER                  =                                              440
 CONSERVED QNTY               =                                   -0.1008369E+04

                                                   INSTANTANEOUS        AVERAGES
 {E-E0}/E0                    =                    0.2454110E-07   0.2409040E-07
 TOTAL POTENTIAL ENERGY[hartre=                   -0.1008455E+04  -0.1008471E+04
 ELEC KINETIC ENERGY[hartree] =                    0.0000000E+00   0.0000000E+00
 XC ENERGY[hartree]           =                    0.3584796E+03   0.3584690E+03
 CORE OVLP ENERGY[hartree]    =                    0.2952885E-01   0.2489574E-01
 HARTREE   ENERGY[hartree]    =                    0.2813597E+02   0.2813511E+02
 KINETIC ENERGY[hartree]      =                    0.8608654E-01   0.1021649E+00
 TEMPERATURE[K]               =                    0.2876595E+03   0.3413857E+03
 *******************************************************************************


 *******************************************************************************
 ENSEMBLE TYPE                =                                              NVE
 STEP NUMBER                  =                                              450
 CONSERVED QNTY               =                                   -0.1008369E+04

                                                   INSTANTANEOUS        AVERAGES
 {E-E0}/E0                    =                    0.3618499E-07   0.2436266E-07
 TOTAL POTENTIAL ENERGY[hartre=                   -0.1008455E+04  -0.1008471E+04
 ELEC KINETIC ENERGY[hartree] =                    0.0000000E+00   0.0000000E+00
 XC ENERGY[hartree]           =                    0.3584794E+03   0.3584693E+03
 CORE OVLP ENERGY[hartree]    =                    0.2942563E-01   0.2500553E-01
 HARTREE   ENERGY[hartree]    =                    0.2813595E+02   0.2813513E+02
 KINETIC ENERGY[hartree]      =                    0.8634823E-01   0.1017849E+00
 TEMPERATURE[K]               =                    0.2885339E+03   0.3401157E+03
 *******************************************************************************


 *******************************************************************************
 ENSEMBLE TYPE                =                                              NVE
 STEP NUMBER                  =                                              460
 CONSERVED QNTY               =                                   -0.1008369E+04

                                                   INSTANTANEOUS        AVERAGES
 {E-E0}/E0                    =                    0.4011226E-07   0.2475670E-07
 TOTAL POTENTIAL ENERGY[hartre=                   -0.1008467E+04  -0.1008470E+04
 ELEC KINETIC ENERGY[hartree] =                    0.0000000E+00   0.0000000E+00
 XC ENERGY[hartree]           =                    0.3584717E+03   0.3584694E+03
 CORE OVLP ENERGY[hartree]    =                    0.2587931E-01   0.2506287E-01
 HARTREE   ENERGY[hartree]    =                    0.2813541E+02   0.2813514E+02
 KINETIC ENERGY[hartree]      =                    0.9813750E-01   0.1015779E+00
 TEMPERATURE[K]               =                    0.3279280E+03   0.3394241E+03
 *******************************************************************************


 *******************************************************************************
 ENSEMBLE TYPE                =                                              NVE
 STEP NUMBER                  =                                              470
 CONSERVED QNTY               =                                   -0.1008369E+04

                                                   INSTANTANEOUS        AVERAGES
 {E-E0}/E0                    =                    0.4068970E-07   0.2488237E-07
 TOTAL POTENTIAL ENERGY[hartre=                   -0.1008480E+04  -0.1008471E+04
 ELEC KINETIC ENERGY[hartree] =                    0.0000000E+00   0.0000000E+00
 XC ENERGY[hartree]           =                    0.3584634E+03   0.3584694E+03
 CORE OVLP ENERGY[hartree]    =                    0.2216213E-01   0.2503381E-01
 HARTREE   ENERGY[hartree]    =                    0.2813474E+02   0.2813514E+02
 KINETIC ENERGY[hartree]      =                    0.1108710E+00   0.1016624E+00
 TEMPERATURE[K]               =                    0.3704773E+03   0.3397066E+03
 *******************************************************************************


 *******************************************************************************
 ENSEMBLE TYPE                =                                              NVE
 STEP NUMBER                  =                                              480
 CONSERVED QNTY               =                                   -0.1008369E+04

                                                   INSTANTANEOUS        AVERAGES
 {E-E0}/E0                    =                    0.2410878E-07   0.2516415E-07
 TOTAL POTENTIAL ENERGY[hartre=                   -0.1008484E+04  -0.1008471E+04
 ELEC KINETIC ENERGY[hartree] =                    0.0000000E+00   0.0000000E+00
 XC ENERGY[hartree]           =                    0.3584606E+03   0.3584692E+03
 CORE OVLP ENERGY[hartree]    =                    0.2107042E-01   0.2495629E-01
 HARTREE   ENERGY[hartree]    =                    0.2813435E+02   0.2813513E+02
 KINETIC ENERGY[hartree]      =                    0.1151854E+00   0.1019209E+00
 TEMPERATURE[K]               =                    0.3848939E+03   0.3405701E+03
 *******************************************************************************


 *******************************************************************************
 ENSEMBLE TYPE                =                                              NVE
 STEP NUMBER                  =                                              490
 CONSERVED QNTY               =                                   -0.1008369E+04

                                                   INSTANTANEOUS        AVERAGES
 {E-E0}/E0                    =                    0.3376528E-07   0.2529002E-07
 TOTAL POTENTIAL ENERGY[hartre=                   -0.1008481E+04  -0.1008471E+04
 ELEC KINETIC ENERGY[hartree] =                    0.0000000E+00   0.0000000E+00
 XC ENERGY[hartree]           =                    0.3584622E+03   0.3584690E+03
 CORE OVLP ENERGY[hartree]    =                    0.2203458E-01   0.2488639E-01
 HARTREE   ENERGY[hartree]    =                    0.2813432E+02   0.2813511E+02
 KINETIC ENERGY[hartree]      =                    0.1126021E+00   0.1021680E+00
 TEMPERATURE[K]               =                    0.3762616E+03   0.3413959E+03
 *******************************************************************************


 *******************************************************************************
 ENSEMBLE TYPE                =                                              NVE
 STEP NUMBER                  =                                              500
 CONSERVED QNTY               =                                   -0.1008369E+04

                                                   INSTANTANEOUS        AVERAGES
 {E-E0}/E0                    =                    0.1357319E-07   0.2530656E-07
 TOTAL POTENTIAL ENERGY[hartre=                   -0.1008478E+04  -0.1008471E+04
 ELEC KINETIC ENERGY[hartree] =                    0.0000000E+00   0.0000000E+00
 XC ENERGY[hartree]           =                    0.3584644E+03   0.3584689E+03
 CORE OVLP ENERGY[hartree]    =                    0.2298363E-01   0.2484049E-01
 HARTREE   ENERGY[hartree]    =                    0.2813452E+02   0.2813509E+02
 KINETIC ENERGY[hartree]      =                    0.1093132E+00   0.1023394E+00
 TEMPERATURE[K]               =                    0.3652716E+03   0.3419688E+03
 *******************************************************************************


 *******************************************************************************
 ENSEMBLE TYPE                =                                              NVE
 STEP NUMBER                  =                                              510
 CONSERVED QNTY               =                                   -0.1008369E+04

                                                   INSTANTANEOUS        AVERAGES
 {E-E0}/E0                    =                    0.3118752E-07   0.2529916E-07
 TOTAL POTENTIAL ENERGY[hartre=                   -0.1008474E+04  -0.1008471E+04
 ELEC KINETIC ENERGY[hartree] =                    0.0000000E+00   0.0000000E+00
 XC ENERGY[hartree]           =                    0.3584671E+03   0.3584688E+03
 CORE OVLP ENERGY[hartree]    =                    0.2408588E-01   0.2481467E-01
 HARTREE   ENERGY[hartree]    =                    0.2813483E+02   0.2813509E+02
 KINETIC ENERGY[hartree]      =                    0.1051502E+00   0.1024351E+00
 TEMPERATURE[K]               =                    0.3513611E+03   0.3422885E+03
 *******************************************************************************


 *******************************************************************************
 ENSEMBLE TYPE                =                                              NVE
 STEP NUMBER                  =                                              520
 CONSERVED QNTY               =                                   -0.1008369E+04

                                                   INSTANTANEOUS        AVERAGES
 {E-E0}/E0                    =                    0.4506294E-07   0.2550850E-07
 TOTAL POTENTIAL ENERGY[hartre=                   -0.1008468E+04  -0.1008471E+04
 ELEC KINETIC ENERGY[hartree] =                    0.0000000E+00   0.0000000E+00
 XC ENERGY[hartree]           =                    0.3584710E+03   0.3584689E+03
 CORE OVLP ENERGY[hartree]    =                    0.2603846E-01   0.2482085E-01
 HARTREE   ENERGY[hartree]    =                    0.2813511E+02   0.2813508E+02
 KINETIC ENERGY[hartree]      =                    0.9905922E-01   0.1024229E+00
 TEMPERATURE[K]               =                    0.3310079E+03   0.3422477E+03
 *******************************************************************************


 *******************************************************************************
 ENSEMBLE TYPE                =                                              NVE
 STEP NUMBER                  =                                              530
 CONSERVED QNTY               =                                   -0.1008369E+04

                                                   INSTANTANEOUS        AVERAGES
 {E-E0}/E0                    =                    0.2644961E-07   0.2575701E-07
 TOTAL POTENTIAL ENERGY[hartre=                   -0.1008467E+04  -0.1008471E+04
 ELEC KINETIC ENERGY[hartree] =                    0.0000000E+00   0.0000000E+00
 XC ENERGY[hartree]           =                    0.3584717E+03   0.3584689E+03
 CORE OVLP ENERGY[hartree]    =                    0.2620671E-01   0.2485085E-01
 HARTREE   ENERGY[hartree]    =                    0.2813530E+02   0.2813509E+02
 KINETIC ENERGY[hartree]      =                    0.9799505E-01   0.1023342E+00
 TEMPERATURE[K]               =                    0.3274520E+03   0.3419513E+03
 *******************************************************************************


 *******************************************************************************
 ENSEMBLE TYPE                =                                              NVE
 STEP NUMBER                  =                                              540
 CONSERVED QNTY               =                                   -0.1008369E+04

                                                   INSTANTANEOUS        AVERAGES
 {E-E0}/E0                    =                    0.6256405E-07   0.2606878E-07
 TOTAL POTENTIAL ENERGY[hartre=                   -0.1008470E+04  -0.1008471E+04
 ELEC KINETIC ENERGY[hartree] =                    0.0000000E+00   0.0000000E+00
 XC ENERGY[hartree]           =                    0.3584694E+03   0.3584689E+03
 CORE OVLP ENERGY[hartree]    =                    0.2475966E-01   0.2486032E-01
 HARTREE   ENERGY[hartree]    =                    0.2813537E+02   0.2813509E+02
 KINETIC ENERGY[hartree]      =                    0.1015895E+00   0.1022917E+00
 TEMPERATURE[K]               =                    0.3394629E+03   0.3418093E+03
 *******************************************************************************


 *******************************************************************************
 ENSEMBLE TYPE                =                                              NVE
 STEP NUMBER                  =                                              550
 CONSERVED QNTY               =                                   -0.1008369E+04

                                                   INSTANTANEOUS        AVERAGES
 {E-E0}/E0                    =                    0.3885623E-07   0.2630139E-07
 TOTAL POTENTIAL ENERGY[hartre=                   -0.1008471E+04  -0.1008471E+04
 ELEC KINETIC ENERGY[hartree] =                    0.0000000E+00   0.0000000E+00
 XC ENERGY[hartree]           =                    0.3584692E+03   0.3584689E+03
 CORE OVLP ENERGY[hartree]    =                    0.2457227E-01   0.2485457E-01
 HARTREE   ENERGY[hartree]    =                    0.2813540E+02   0.2813510E+02
 KINETIC ENERGY[hartree]      =                    0.1019601E+00   0.1022888E+00
 TEMPERATURE[K]               =                    0.3407012E+03   0.3417995E+03
 *******************************************************************************


 *******************************************************************************
 ENSEMBLE TYPE                =                                              NVE
 STEP NUMBER                  =                                              560
 CONSERVED QNTY               =                                   -0.1008369E+04

                                                   INSTANTANEOUS        AVERAGES
 {E-E0}/E0                    =                    0.1155446E-07   0.2610959E-07
 TOTAL POTENTIAL ENERGY[hartre=                   -0.1008468E+04  -0.1008471E+04
 ELEC KINETIC ENERGY[hartree] =                    0.0000000E+00   0.0000000E+00
 XC ENERGY[hartree]           =                    0.3584710E+03   0.3584690E+03
 CORE OVLP ENERGY[hartree]    =                    0.2536591E-01   0.2485649E-01
 HARTREE   ENERGY[hartree]    =                    0.2813543E+02   0.2813510E+02
 KINETIC ENERGY[hartree]      =                    0.9941023E-01   0.1022595E+00
 TEMPERATURE[K]               =                    0.3321808E+03   0.3417016E+03
 *******************************************************************************


 *******************************************************************************
 ENSEMBLE TYPE                =                                              NVE
 STEP NUMBER                  =                                              570
 CONSERVED QNTY               =                                   -0.1008369E+04

                                                   INSTANTANEOUS        AVERAGES
 {E-E0}/E0                    =                    0.2292257E-07   0.2598761E-07
 TOTAL POTENTIAL ENERGY[hartre=                   -0.1008467E+04  -0.1008471E+04
 ELEC KINETIC ENERGY[hartree] =                    0.0000000E+00   0.0000000E+00
 XC ENERGY[hartree]           =                    0.3584720E+03   0.3584690E+03
 CORE OVLP ENERGY[hartree]    =                    0.2602075E-01   0.2487313E-01
 HARTREE   ENERGY[hartree]    =                    0.2813535E+02   0.2813511E+02
 KINETIC ENERGY[hartree]      =                    0.9786186E-01   0.1021896E+00
 TEMPERATURE[K]               =                    0.3270069E+03   0.3414680E+03
 *******************************************************************************


 *******************************************************************************
 ENSEMBLE TYPE                =                                              NVE
 STEP NUMBER                  =                                              580
 CONSERVED QNTY               =                                   -0.1008369E+04

                                                   INSTANTANEOUS        AVERAGES
 {E-E0}/E0                    =                    0.2239811E-07   0.2616561E-07
 TOTAL POTENTIAL ENERGY[hartre=                   -0.1008470E+04  -0.1008471E+04
 ELEC KINETIC ENERGY[hartree] =                    0.0000000E+00   0.0000000E+00
 XC ENERGY[hartree]           =                    0.3584696E+03   0.3584690E+03
 CORE OVLP ENERGY[hartree]    =                    0.2513286E-01   0.2488716E-01
 HARTREE   ENERGY[hartree]    =                    0.2813504E+02   0.2813511E+02
 KINETIC ENERGY[hartree]      =                    0.1013650E+00   0.1021396E+00
 TEMPERATURE[K]               =                    0.3387126E+03   0.3413010E+03
 *******************************************************************************


 *******************************************************************************
 ENSEMBLE TYPE                =                                              NVE
 STEP NUMBER                  =                                              590
 CONSERVED QNTY               =                                   -0.1008369E+04

                                                   INSTANTANEOUS        AVERAGES
 {E-E0}/E0                    =                    0.1237799E-07   0.2610979E-07
 TOTAL POTENTIAL ENERGY[hartre=                   -0.1008479E+04  -0.1008471E+04
 ELEC KINETIC ENERGY[hartree] =                    0.0000000E+00   0.0000000E+00
 XC ENERGY[hartree]           =                    0.3584642E+03   0.3584690E+03
 CORE OVLP ENERGY[hartree]    =                    0.2270783E-01   0.2487013E-01
 HARTREE   ENERGY[hartree]    =                    0.2813455E+02   0.2813510E+02
 KINETIC ENERGY[hartree]      =                    0.1097537E+00   0.1022007E+00
 TEMPERATURE[K]               =                    0.3667438E+03   0.3415052E+03
 *******************************************************************************


 *******************************************************************************
 ENSEMBLE TYPE                =                                              NVE
 STEP NUMBER                  =                                              600
 CONSERVED QNTY               =                                   -0.1008369E+04

                                                   INSTANTANEOUS        AVERAGES
 {E-E0}/E0                    =                    0.2359418E-07   0.2595347E-07
 TOTAL POTENTIAL ENERGY[hartre=                   -0.1008487E+04  -0.1008471E+04
 ELEC KINETIC ENERGY[hartree] =                    0.0000000E+00   0.0000000E+00
 XC ENERGY[hartree]           =                    0.3584589E+03   0.3584689E+03
 CORE OVLP ENERGY[hartree]    =                    0.2022690E-01   0.2481001E-01
 HARTREE   ENERGY[hartree]    =                    0.2813411E+02   0.2813509E+02
 KINETIC ENERGY[hartree]      =                    0.1179906E+00   0.1024065E+00
 TEMPERATURE[K]               =                    0.3942674E+03   0.3421930E+03
 *******************************************************************************


 *******************************************************************************
 ENSEMBLE TYPE                =                                              NVE
 STEP NUMBER                  =                                              610
 CONSERVED QNTY               =                                   -0.1008369E+04

                                                   INSTANTANEOUS        AVERAGES
 {E-E0}/E0                    =                    0.4293834E-07   0.2592743E-07
 TOTAL POTENTIAL ENERGY[hartre=                   -0.1008490E+04  -0.1008472E+04
 ELEC KINETIC ENERGY[hartree] =                    0.0000000E+00   0.0000000E+00
 XC ENERGY[hartree]           =                    0.3584571E+03   0.3584687E+03
 CORE OVLP ENERGY[hartree]    =                    0.1947243E-01   0.2472508E-01
 HARTREE   ENERGY[hartree]    =                    0.2813395E+02   0.2813507E+02
 KINETIC ENERGY[hartree]      =                    0.1206386E+00   0.1026957E+00
 TEMPERATURE[K]               =                    0.4031158E+03   0.3431593E+03
 *******************************************************************************


 *******************************************************************************
 ENSEMBLE TYPE                =                                              NVE
 STEP NUMBER                  =                                              620
 CONSERVED QNTY               =                                   -0.1008369E+04

                                                   INSTANTANEOUS        AVERAGES
[...]
 STEP NUMBER                  =                                             4850
 CONSERVED QNTY               =                                   -0.1008369E+04

                                                   INSTANTANEOUS        AVERAGES
 {E-E0}/E0                    =                    0.9059987E-07   0.3825396E-07
 TOTAL POTENTIAL ENERGY[hartre=                   -0.1008482E+04  -0.1008473E+04
 ELEC KINETIC ENERGY[hartree] =                    0.0000000E+00   0.0000000E+00
 XC ENERGY[hartree]           =                    0.3584624E+03   0.3584676E+03
 CORE OVLP ENERGY[hartree]    =                    0.2146212E-01   0.2434310E-01
 HARTREE   ENERGY[hartree]    =                    0.2813449E+02   0.2813503E+02
 KINETIC ENERGY[hartree]      =                    0.1128056E+00   0.1042498E+00
 TEMPERATURE[K]               =                    0.3769417E+03   0.3483523E+03
 *******************************************************************************


 *******************************************************************************
 ENSEMBLE TYPE                =                                              NVE
 STEP NUMBER                  =                                             4860
 CONSERVED QNTY               =                                   -0.1008369E+04

                                                   INSTANTANEOUS        AVERAGES
 {E-E0}/E0                    =                    0.6801392E-07   0.3833205E-07
 TOTAL POTENTIAL ENERGY[hartre=                   -0.1008475E+04  -0.1008473E+04
 ELEC KINETIC ENERGY[hartree] =                    0.0000000E+00   0.0000000E+00
 XC ENERGY[hartree]           =                    0.3584670E+03   0.3584676E+03
 CORE OVLP ENERGY[hartree]    =                    0.2365671E-01   0.2433954E-01
 HARTREE   ENERGY[hartree]    =                    0.2813486E+02   0.2813503E+02
 KINETIC ENERGY[hartree]      =                    0.1056077E+00   0.1042595E+00
 TEMPERATURE[K]               =                    0.3528899E+03   0.3483848E+03
 *******************************************************************************


 *******************************************************************************
 ENSEMBLE TYPE                =                                              NVE
 STEP NUMBER                  =                                             4870
 CONSERVED QNTY               =                                   -0.1008369E+04

                                                   INSTANTANEOUS        AVERAGES
 {E-E0}/E0                    =                    0.9163442E-07   0.3843843E-07
 TOTAL POTENTIAL ENERGY[hartre=                   -0.1008469E+04  -0.1008473E+04
 ELEC KINETIC ENERGY[hartree] =                    0.0000000E+00   0.0000000E+00
 XC ENERGY[hartree]           =                    0.3584703E+03   0.3584676E+03
 CORE OVLP ENERGY[hartree]    =                    0.2526043E-01   0.2434026E-01
 HARTREE   ENERGY[hartree]    =                    0.2813513E+02   0.2813503E+02
 KINETIC ENERGY[hartree]      =                    0.1004521E+00   0.1042555E+00
 TEMPERATURE[K]               =                    0.3356622E+03   0.3483714E+03
 *******************************************************************************


 *******************************************************************************
 ENSEMBLE TYPE                =                                              NVE
 STEP NUMBER                  =                                             4880
 CONSERVED QNTY               =                                   -0.1008369E+04

                                                   INSTANTANEOUS        AVERAGES
 {E-E0}/E0                    =                    0.1168076E-06   0.3857520E-07
 TOTAL POTENTIAL ENERGY[hartre=                   -0.1008470E+04  -0.1008473E+04
 ELEC KINETIC ENERGY[hartree] =                    0.0000000E+00   0.0000000E+00
 XC ENERGY[hartree]           =                    0.3584696E+03   0.3584676E+03
 CORE OVLP ENERGY[hartree]    =                    0.2495692E-01   0.2434202E-01
 HARTREE   ENERGY[hartree]    =                    0.2813523E+02   0.2813503E+02
 KINETIC ENERGY[hartree]      =                    0.1012954E+00   0.1042480E+00
 TEMPERATURE[K]               =                    0.3384800E+03   0.3483463E+03
 *******************************************************************************


 *******************************************************************************
 ENSEMBLE TYPE                =                                              NVE
 STEP NUMBER                  =                                             4890
 CONSERVED QNTY               =                                   -0.1008369E+04

                                                   INSTANTANEOUS        AVERAGES
 {E-E0}/E0                    =                    0.1094036E-06   0.3873208E-07
 TOTAL POTENTIAL ENERGY[hartre=                   -0.1008471E+04  -0.1008473E+04
 ELEC KINETIC ENERGY[hartree] =                    0.0000000E+00   0.0000000E+00
 XC ENERGY[hartree]           =                    0.3584689E+03   0.3584676E+03
 CORE OVLP ENERGY[hartree]    =                    0.2469855E-01   0.2434281E-01
 HARTREE   ENERGY[hartree]    =                    0.2813523E+02   0.2813503E+02
 KINETIC ENERGY[hartree]      =                    0.1022887E+00   0.1042435E+00
 TEMPERATURE[K]               =                    0.3417994E+03   0.3483314E+03
 *******************************************************************************


 *******************************************************************************
 ENSEMBLE TYPE                =                                              NVE
 STEP NUMBER                  =                                             4900
 CONSERVED QNTY               =                                   -0.1008369E+04

                                                   INSTANTANEOUS        AVERAGES
 {E-E0}/E0                    =                    0.9870893E-07   0.3885296E-07
 TOTAL POTENTIAL ENERGY[hartre=                   -0.1008470E+04  -0.1008473E+04
 ELEC KINETIC ENERGY[hartree] =                    0.0000000E+00   0.0000000E+00
 XC ENERGY[hartree]           =                    0.3584699E+03   0.3584676E+03
 CORE OVLP ENERGY[hartree]    =                    0.2537301E-01   0.2434423E-01
 HARTREE   ENERGY[hartree]    =                    0.2813523E+02   0.2813503E+02
 KINETIC ENERGY[hartree]      =                    0.1006466E+00   0.1042379E+00
 TEMPERATURE[K]               =                    0.3363123E+03   0.3483126E+03
 *******************************************************************************


 *******************************************************************************
 ENSEMBLE TYPE                =                                              NVE
 STEP NUMBER                  =                                             4910
 CONSERVED QNTY               =                                   -0.1008369E+04

                                                   INSTANTANEOUS        AVERAGES
 {E-E0}/E0                    =                    0.1112723E-06   0.3899319E-07
 TOTAL POTENTIAL ENERGY[hartre=                   -0.1008469E+04  -0.1008473E+04
 ELEC KINETIC ENERGY[hartree] =                    0.0000000E+00   0.0000000E+00
 XC ENERGY[hartree]           =                    0.3584703E+03   0.3584676E+03
 CORE OVLP ENERGY[hartree]    =                    0.2567754E-01   0.2434679E-01
 HARTREE   ENERGY[hartree]    =                    0.2813524E+02   0.2813503E+02
 KINETIC ENERGY[hartree]      =                    0.9985638E-01   0.1042294E+00
 TEMPERATURE[K]               =                    0.3336716E+03   0.3482841E+03
 *******************************************************************************


 *******************************************************************************
 ENSEMBLE TYPE                =                                              NVE
 STEP NUMBER                  =                                             4920
 CONSERVED QNTY               =                                   -0.1008369E+04

                                                   INSTANTANEOUS        AVERAGES
 {E-E0}/E0                    =                    0.1056861E-06   0.3915256E-07
 TOTAL POTENTIAL ENERGY[hartre=                   -0.1008469E+04  -0.1008473E+04
 ELEC KINETIC ENERGY[hartree] =                    0.0000000E+00   0.0000000E+00
 XC ENERGY[hartree]           =                    0.3584700E+03   0.3584676E+03
 CORE OVLP ENERGY[hartree]    =                    0.2554750E-01   0.2434938E-01
 HARTREE   ENERGY[hartree]    =                    0.2813519E+02   0.2813503E+02
 KINETIC ENERGY[hartree]      =                    0.1003964E+00   0.1042209E+00
 TEMPERATURE[K]               =                    0.3354761E+03   0.3482558E+03
 *******************************************************************************


 *******************************************************************************
 ENSEMBLE TYPE                =                                              NVE
 STEP NUMBER                  =                                             4930
 CONSERVED QNTY               =                                   -0.1008369E+04

                                                   INSTANTANEOUS        AVERAGES
 {E-E0}/E0                    =                    0.9302655E-07   0.3929095E-07
 TOTAL POTENTIAL ENERGY[hartre=                   -0.1008471E+04  -0.1008473E+04
 ELEC KINETIC ENERGY[hartree] =                    0.0000000E+00   0.0000000E+00
 XC ENERGY[hartree]           =                    0.3584687E+03   0.3584676E+03
 CORE OVLP ENERGY[hartree]    =                    0.2500329E-01   0.2435131E-01
 HARTREE   ENERGY[hartree]    =                    0.2813508E+02   0.2813503E+02
 KINETIC ENERGY[hartree]      =                    0.1023404E+00   0.1042151E+00
 TEMPERATURE[K]               =                    0.3419720E+03   0.3482363E+03
 *******************************************************************************


 *******************************************************************************
 ENSEMBLE TYPE                =                                              NVE
 STEP NUMBER                  =                                             4940
 CONSERVED QNTY               =                                   -0.1008369E+04

                                                   INSTANTANEOUS        AVERAGES
 {E-E0}/E0                    =                    0.1088613E-06   0.3941735E-07
 TOTAL POTENTIAL ENERGY[hartre=                   -0.1008474E+04  -0.1008473E+04
 ELEC KINETIC ENERGY[hartree] =                    0.0000000E+00   0.0000000E+00
 XC ENERGY[hartree]           =                    0.3584669E+03   0.3584676E+03
 CORE OVLP ENERGY[hartree]    =                    0.2420625E-01   0.2435171E-01
 HARTREE   ENERGY[hartree]    =                    0.2813496E+02   0.2813503E+02
 KINETIC ENERGY[hartree]      =                    0.1050724E+00   0.1042144E+00
 TEMPERATURE[K]               =                    0.3511010E+03   0.3482339E+03
 *******************************************************************************


 *******************************************************************************
 ENSEMBLE TYPE                =                                              NVE
 STEP NUMBER                  =                                             4950
 CONSERVED QNTY               =                                   -0.1008369E+04

                                                   INSTANTANEOUS        AVERAGES
 {E-E0}/E0                    =                    0.1138026E-06   0.3958047E-07
 TOTAL POTENTIAL ENERGY[hartre=                   -0.1008476E+04  -0.1008473E+04
 ELEC KINETIC ENERGY[hartree] =                    0.0000000E+00   0.0000000E+00
 XC ENERGY[hartree]           =                    0.3584656E+03   0.3584676E+03
 CORE OVLP ENERGY[hartree]    =                    0.2369551E-01   0.2435081E-01
 HARTREE   ENERGY[hartree]    =                    0.2813486E+02   0.2813503E+02
 KINETIC ENERGY[hartree]      =                    0.1069852E+00   0.1042184E+00
 TEMPERATURE[K]               =                    0.3574928E+03   0.3482473E+03
 *******************************************************************************


 *******************************************************************************
 ENSEMBLE TYPE                =                                              NVE
 STEP NUMBER                  =                                             4960
 CONSERVED QNTY               =                                   -0.1008369E+04

                                                   INSTANTANEOUS        AVERAGES
 {E-E0}/E0                    =                    0.1128891E-06   0.3971175E-07
 TOTAL POTENTIAL ENERGY[hartre=                   -0.1008478E+04  -0.1008473E+04
 ELEC KINETIC ENERGY[hartree] =                    0.0000000E+00   0.0000000E+00
 XC ENERGY[hartree]           =                    0.3584645E+03   0.3584676E+03
 CORE OVLP ENERGY[hartree]    =                    0.2323474E-01   0.2434899E-01
 HARTREE   ENERGY[hartree]    =                    0.2813477E+02   0.2813503E+02
 KINETIC ENERGY[hartree]      =                    0.1086326E+00   0.1042257E+00
 TEMPERATURE[K]               =                    0.3629976E+03   0.3482718E+03
 *******************************************************************************


 *******************************************************************************
 ENSEMBLE TYPE                =                                              NVE
 STEP NUMBER                  =                                             4970
 CONSERVED QNTY               =                                   -0.1008369E+04

                                                   INSTANTANEOUS        AVERAGES
 {E-E0}/E0                    =                    0.8440051E-07   0.3985068E-07
 TOTAL POTENTIAL ENERGY[hartre=                   -0.1008480E+04  -0.1008473E+04
 ELEC KINETIC ENERGY[hartree] =                    0.0000000E+00   0.0000000E+00
 XC ENERGY[hartree]           =                    0.3584631E+03   0.3584676E+03
 CORE OVLP ENERGY[hartree]    =                    0.2260077E-01   0.2434608E-01
 HARTREE   ENERGY[hartree]    =                    0.2813471E+02   0.2813503E+02
 KINETIC ENERGY[hartree]      =                    0.1107232E+00   0.1042369E+00
 TEMPERATURE[K]               =                    0.3699834E+03   0.3483092E+03
 *******************************************************************************


 *******************************************************************************
 ENSEMBLE TYPE                =                                              NVE
 STEP NUMBER                  =                                             4980
 CONSERVED QNTY               =                                   -0.1008369E+04

                                                   INSTANTANEOUS        AVERAGES
 {E-E0}/E0                    =                    0.8146171E-07   0.3996216E-07
 TOTAL POTENTIAL ENERGY[hartre=                   -0.1008481E+04  -0.1008473E+04
 ELEC KINETIC ENERGY[hartree] =                    0.0000000E+00   0.0000000E+00
 XC ENERGY[hartree]           =                    0.3584626E+03   0.3584676E+03
 CORE OVLP ENERGY[hartree]    =                    0.2221141E-01   0.2434201E-01
 HARTREE   ENERGY[hartree]    =                    0.2813473E+02   0.2813503E+02
 KINETIC ENERGY[hartree]      =                    0.1116090E+00   0.1042513E+00
 TEMPERATURE[K]               =                    0.3729433E+03   0.3483573E+03
 *******************************************************************************


 *******************************************************************************
 ENSEMBLE TYPE                =                                              NVE
 STEP NUMBER                  =                                             4990
 CONSERVED QNTY               =                                   -0.1008369E+04

                                                   INSTANTANEOUS        AVERAGES
 {E-E0}/E0                    =                    0.1014366E-06   0.4007761E-07
 TOTAL POTENTIAL ENERGY[hartre=                   -0.1008477E+04  -0.1008473E+04
 ELEC KINETIC ENERGY[hartree] =                    0.0000000E+00   0.0000000E+00
 XC ENERGY[hartree]           =                    0.3584646E+03   0.3584676E+03
 CORE OVLP ENERGY[hartree]    =                    0.2316845E-01   0.2433853E-01
 HARTREE   ENERGY[hartree]    =                    0.2813489E+02   0.2813503E+02
 KINETIC ENERGY[hartree]      =                    0.1084496E+00   0.1042634E+00
 TEMPERATURE[K]               =                    0.3623860E+03   0.3483978E+03
 *******************************************************************************


 *******************************************************************************
 ENSEMBLE TYPE                =                                              NVE
 STEP NUMBER                  =                                             5000
 CONSERVED QNTY               =                                   -0.1008369E+04

                                                   INSTANTANEOUS        AVERAGES
 {E-E0}/E0                    =                    0.6093577E-07   0.4014402E-07
 TOTAL POTENTIAL ENERGY[hartre=                   -0.1008472E+04  -0.1008473E+04
 ELEC KINETIC ENERGY[hartree] =                    0.0000000E+00   0.0000000E+00
 XC ENERGY[hartree]           =                    0.3584684E+03   0.3584676E+03
 CORE OVLP ENERGY[hartree]    =                    0.2502487E-01   0.2433825E-01
 HARTREE   ENERGY[hartree]    =                    0.2813510E+02   0.2813503E+02
 KINETIC ENERGY[hartree]      =                    0.1026705E+00   0.1042653E+00
 TEMPERATURE[K]               =                    0.3430752E+03   0.3484041E+03
 *******************************************************************************


 -------------------------------------------------------------------------------
 -                                                                             -
 -                                T I M I N G                                  -
 -                                                                             -
 -------------------------------------------------------------------------------
 SUBROUTINE                        CALLS  CPU TIME T  PERFORMANCE   ELAPSED TIME
 CP2K                                  1  22385.33 I       ---          22395.99
 CNTL_WORK                             1  22385.24 I       ---          22395.89
 FORCE                              5001  22382.40 I       ---          22392.24
 VELOCITY VERLET                    5000  22378.03 I       ---          22387.56
 fft_wrap_pw1pw2                   70014  12123.56 I       ---          12128.90
 fft3d_s                           70015   8853.88 I 129.3 Mflops        8855.87
 calculate_density                  5001   2185.41 I       ---           2186.71
 calculate_v_rspace_forces          5001   2037.94 I       ---           2038.96
 perdew_zunger lda                  5001   1689.59 I       ---           1689.73
 calculate_epc_density              5001   1119.45 I       ---           1120.07
 pw_scatter                        35007    950.50 I   2.1 Mcopy          951.25
 -------------------------------------------------------------------------------


  **** **** ******  **  PROGRAM ENDED AT                Wed Oct 23 15:55:32 2002
 ***** ** ***  *** **   PROGRAM RAN ON                                        ka
 **    ****   ******    PROGRAM RAN BY                                    gloria
 ***** **    ** ** **   PROGRAM PROCESS ID                                 26036
  **** **  *******  **  PROGRAM RAN IN     
                            /home/chem/gloria/CP2K/CP2K/tests/KG/Argon/liquid_64
 
