 
  **** **** ******  **  PROGRAM STARTED AT              Mon Oct 14 18:58:30 2002
 ***** ** ***  *** **   PROGRAM STARTED ON                                    ka
 **    ****   ******    PROGRAM STARTED BY                                gloria
 ***** **    ** ** **   PROGRAM PROCESS ID                                 28852
  **** **  *******  **  PROGRAM STARTED IN 
                                      /home/chem/gloria/CP2K/CP2K/tests/KG/Argon
 
 CP2K| Program compiled at                          Fri Oct 11 17:49:09 DFT 2002
 CP2K| Program compiled on                                                    ka
 CP2K| Program compiled for                                           AIX-POWER2
 CP2K| Program name                                                           KG
 CP2K| Input file name                                               input_debug
 CP2K| Project name                                                           ar
 CP2K| Default FFT library                                                 FFTSG
 CP2K| Default basis set file                                          BASIS_SET
 CP2K| Default external potential file                                 POTENTIAL
 CP2K| Default library path                                                   ./
 CP2K| Global print level                                                      1
 CP2K| Total number of processors                                              1
 CP2K| This output from processor                                              0
 
 CONTROL| Run type                                                         DEBUG
 CONTROL| Unit type                                                       ATOMIC
 CONTROL| Use of symmetry                                                     No
 CONTROL| Path Integrals                                                      No
 CONTROL| Set file name                                                   ar.set
 CONTROL| Topology file name                                              ar.top
 CONTROL| Print level                                                          1


 DFT| Force calculation                                                       NO
 DFT| Cutoffs: density                                               0.10000E-09
 DFT|          gradient                                              0.10000E-07
 DFT| XC mesh (PW density)                                               default
 FUNCTIONAL| Exchange Functional                                            NONE
 FUNCTIONAL| Correlation Functional                                         PADE
              S. Goedecker, M. Teter and J. Hutter, Phys. Rev. B 54, 1703 (1996)

 KG| Method:                                                            KG_NOPOL
 KG| Number of grid levels:                                                    1
 KG| Density cutoff [a.u.]:                                                  5.0
 KG| Grid level progression factor:                                          2.0
 KG| Relative density cutoff [a.u.]:                                        25.0
 KG| Interaction thresholds: eps_pgf_orb:                                1.0E-07
 KG|                         eps_core_charge:                            1.0E-08
 KG|                         eps_rho_gspace:                             1.0E-08
 KG|                         eps_rho_rspace:                             1.0E-08
 KG|                         eps_gvg_rspace:                             1.0E-07

 MOLECULE| Number of molecule types                                            1
 MOLECULE| Molecule type Molecule name           Molecules           Nose option
 MOLECULE|      1                   AR                2                   GLOBAL

 CELL| Reference Cell 
 CELL| Periodic in X direction                                               YES
 CELL| Periodic in Y direction                                               YES
 CELL| Periodic in Z direction                                               YES
 CELL| Poisson Solver                                                   STANDARD
 CELL| Parameters                                    15.0000    0.0000    0.0000
 CELL|                                                0.0000   15.0000    0.0000
 CELL|                                                0.0000    0.0000   15.0000

 MOLECULE| Molecule name                                                      AR
 MOLECULE| Number of atoms                                                     1
 MOLECULE| Number of atom types                                                1
 MOLECULE|                             Atom                  Weight       Charge
 MOLECULE|                             AR                  39.94800      0.00000
 FORCE FIELD| Non-bonded interaction parameters
 FORCE FIELD| LJ (12-6)      AR     AR                    epsilon [K]    78.1980
 FORCE FIELD|                                               sigma [A]     3.1660
 FORCE FIELD|                                                rcut [A]    10.0000

 MD| Molecular Dynamics Protocol 
 MD| Ensemble Type                                                           NVE
 MD| Restart Type                                                           INIT
 MD| Number of Time Steps                                                     10
 MD| Time Step [fs]                                                         2.50
 MD| Temperature [K]                                                      277.00
 MD| Verlet buffer skin [Angstrom]                                          1.00
 MD| Constraints activated 
 MD| Tolerance for shake                                              0.1000E-09
 MD| Print MD information every                                        1 step(s)
 MD| File type     Print frequency[steps]                             File names
 MD| Coordinates           10                                             ar.crd
 MD| Velocities            10                                             ar.vel
 MD| Energies              10                                            ar.ener
 MD| Temperature           10                                            ar.temp
 MD| Pressure Tensor       10                                           ar.ptens
 MD| Dump                  10                                            ar.dump
 


 BASIS SET INFORMATION (Unnormalised Gaussian-type functions)

  1. Atomic kind: AR

   - GTO basis set information

     GTO basis set name: KG-PDM-BARKER

     Set   Shell     n   l            Exponent    Coefficient

       1       1     1   0            0.705000      -7.668000
                                      0.390000       3.129000
                                      0.329000      -4.537000


 ATOMIC KIND INFORMATION

  1. Atomic kind: AR

     Number of atoms of this atomic kind in the cell:      2

   - Orbital basis set information

     Orbital basis set name: KG-PDM-BARKER

     Number of orbital shell sets:                 1
     Number of orbital shells:                     1
     Number of primitive Cartesian functions:      3
     Number of Cartesian basis functions:          1
     Number of spherical basis functions:          1

     Normalised Cartesian orbitals

     Set   Shell   Orbital            Exponent    Coefficient

       1       1    1s                0.705000      -0.815156
                                      0.390000       0.136860
                                      0.329000      -0.153758


   - Potential information

     Potential name: EPC

     Description: effective point charge potential

     Atomic Effective Charge:    9.076000

     Gaussian exponent of the core charge distribution:     0.440000


 RADII OF THE ORBITAL BASIS IN BOHR

  Kind   Label       Radius

     1   AR         6.580278


 RADII OF THE SHELL SETS OF THE ORBITAL BASIS IN BOHR

  Kind   Label   Set       Radius

     1   AR        1      6.580278


 RADII OF THE PRIMITIVE GAUSSIAN FUNCTIONS OF THE ORBITAL BASIS IN BOHR

  Kind   Label   Set       Radius

     1   AR        1      4.751069
                          6.019051
                          6.580278


 RADII OF THE CORE CHARGE DISTRIBUTIONS IN BOHR

  Kind   Label       Radius

     1   AR         6.338509
                ***************************************************
                                   BEGIN KIM-GORDON DEBUG
                ***************************************************
 DO YOU WANT TO DEBUG YOUR G-SPACE INTERACTIONS (1=yes)?
1
 ENTER A DELTA LESS THAN 1
1
 DELTA ( changed to default ) =                                         0.000010
 G-SPACE ANA ENERGY =                                         0.878223160471    
 G-SPACE DBG ENERGY =                                         0.878223160471    

 DO YOU WANT TO GET THE FORCES ON ALL PARTICLES (FILE=gspace, 1=yes)?
1
MAXIMUM ABSOLUTE ERROR =                                      0.219410755181E-03
MAXIMUM RELATIVE ERROR =                                      0.976697684804    
 PARTICLE WITH MAX ABSOLUTE ERROR IS                                           2
 F ANA G-SPACE =      0.402986864136E-03  0.952886477877E-09  0.952886290268E-09
 F NUM G-SPACE =      0.183576108955E-03 -0.222044610534E-10  0.222044610534E-10
PARTICLE WITH MAX RELATIVE ERROR IS                                            2
 F ANA G-SPACE =      0.402986864136E-03  0.952886477877E-09  0.952886290268E-09
 F NUM G-SPACE =      0.183576108955E-03 -0.222044610534E-10  0.222044610534E-10
 DO YOU WANT TO DEBUG YOUR THOMASFERMI INTERACTIONS (1=yes)?

1
 ENTER A DELTA LESS THAN 1
1
 DELTA ( changed to default ) =                                         0.000010
 TH-FERMI ANA ENERGY =                                         20.1224917093    
 TH-FERMI DBG ENERGY =                                         20.1224917093    

 DO YOU WANT TO GET THE FORCES ON ALL PARTICLES (FILE=part_tf, 1=yes)?
1
MAXIMUM ABSOLUTE ERROR =                                      0.821868367671E-03
MAXIMUM RELATIVE ERROR =                                       2.71149864245    
 PARTICLE WITH MAX ABSOLUTE ERROR IS                                           2
 F ANA TF =          -0.303104842025E-03  0.135292867108E-07  0.135292843785E-07
 F NUM TF =          -0.112497320970E-02 -0.675015616024E-08 -0.728306322553E-08
PARTICLE WITH MAX RELATIVE ERROR IS                                            2
 F ANA TF =          -0.303104842025E-03  0.135292867108E-07  0.135292843785E-07
 F NUM TF =          -0.112497320970E-02 -0.675015616024E-08 -0.728306322553E-08
 DO YOU WANT TO DEBUG YOUR XC INTERACTIONS (1=yes)?
1
 ENTER A DELTA LESS THAN 1
1
 DELTA ( changed to default ) =                                         0.000010
 XC ANA ENERGY =                                              -9.15125525784    
 XC DBG ENERGY =                                              -9.15125525784    

 DO YOU WANT TO GET THE FORCES ON ALL PARTICLES (FILE=part_xc, 1=yes)?
1
MAXIMUM ABSOLUTE ERROR =                                      0.158471202980E-03
MAXIMUM RELATIVE ERROR =                                      0.969929949086    
 PARTICLE WITH MAX ABSOLUTE ERROR IS                                           2
 F ANA XC =          -0.724196401882E-02 -0.351426535363E-07 -0.351426528622E-07
 F NUM XC =          -0.708349281584E-02 -0.310862454748E-08 -0.524025280861E-08
PARTICLE WITH MAX RELATIVE ERROR IS                                            1
 F ANA XC =           0.724187716148E-02 -0.383980723276E-07 -0.383980718256E-07
 F NUM XC =           0.708349539156E-02 -0.310862454748E-08 -0.115463197478E-08
 DO YOU WANT TO DEBUG CORE CHARGE RSPACE INTERACTIONS (1=yes)?

1
 ENTER A DELTA LESS THAN 1
1
 DELTA ( changed to default ) =                                         0.000010
 RSPACE ANA ENERGY =                                          0.580921055244E-05
 RSPACE DBG ENERGY =                                          0.580921055244E-05

 DO YOU WANT TO GET THE FORCES ON ALL PARTICLES (FILE=part_rspace, 1=yes)?
1
MAXIMUM ABSOLUTE ERROR =                                      0.283437573271E-12
 PARTICLE WITH MAX ABSOLUTE ERROR IS                                           2
 F ANA RSPACE CORE =  0.208063936890E-04   0.00000000000       0.00000000000    
 F NUM RSPACE CORE =  0.208063939725E-04   0.00000000000       0.00000000000    

 -------------------------------------------------------------------------------
 -                                                                             -
 -                                T I M I N G                                  -
 -                                                                             -
 -------------------------------------------------------------------------------
 SUBROUTINE                        CALLS  CPU TIME T  PERFORMANCE   ELAPSED TIME
 CP2K                                  1      1.46 I       ---              1.56
 CNTL_WORK                             1      1.37 I       ---              1.45
 fft_wrap_pw1pw2                     101      0.62 I       ---              0.63
 calculate_density                    40      0.56 I       ---              0.57
 fft3d_s                             102      0.44 I 316.2 Mflops           0.45
 FORCE                                 1      0.21 I       ---              0.25
 calculate_epc_density                14      0.12 I       ---              0.15
 KG_INIT                               1      0.09 I       ---              0.11
 init_cube_info                        1      0.08 I       ---              0.09
 pw_scatter                           44      0.05 I   5.3 Mcopy            0.05
 pw_gather                            57      0.05 I   6.9 Mcopy            0.05
 pw_zero                             259      0.04 I 119.1 Mzero            0.05
 calculate_v_rspace_forces             3      0.04 I       ---              0.04
 -------------------------------------------------------------------------------


  **** **** ******  **  PROGRAM ENDED AT                Mon Oct 14 19:00:00 2002
 ***** ** ***  *** **   PROGRAM RAN ON                                        ka
 **    ****   ******    PROGRAM RAN BY                                    gloria
 ***** **    ** ** **   PROGRAM PROCESS ID                                 28072
  **** **  *******  **  PROGRAM RAN IN     
                                      /home/chem/gloria/CP2K/CP2K/tests/KG/Argon
 

