     914
 i =       58, E =    -14805.6065327007
 Rh        14.7748269320        6.9616157401       -0.1011233541
 Rh        22.8446842808       20.9187425310       -0.0949184069
 Rh        30.9032502993        6.9271596660       -0.0929868098
 Rh        38.9262990323       20.9141418686       -0.0338979277
 Rh        14.7755570528        6.9506515637        6.5971405291
 Rh        22.8287148585       20.9231568614        6.5877666126
 Rh        30.9012883906        6.9483790995        6.5895267944
 Rh        38.9778206244       20.9250335928        6.5871895700
 Rh        16.1199158697        9.2819583629       -0.1015967290
 Rh        24.2092672850       23.2350534108       -0.0727575713
 Rh        32.2476283594        9.2663927371       -0.1311089438
 Rh        40.2835133851       23.2408420775       -0.0546883486
 Rh        16.1183003302        9.2766884466        6.5972303625
 Rh        24.1734133776       23.2521213252        6.5859208142
 Rh        32.2460435173        9.2708764079        6.5879406155
 Rh        40.3194036192       23.2526279554        6.5896727503
 Rh        17.4611641006       11.6064357333       -0.1012336343
 Rh        25.5538841557       25.5602632521       -0.0705328619
 Rh        33.5877382789       11.6382454308       -0.0583023281
 Rh        41.6666796199       25.5865192283       -0.1319824697
 Rh        17.4606978289       11.6028215877        6.5964506446
 Rh        25.5202235561       25.5801846152        6.5891455181
 Rh        33.5916341395       11.5965327338        6.5822660452
 Rh        41.6565197021       25.5788063984        6.5882594043
 Rh        18.7997773302       13.9306982971       -0.1064020438
 Rh        26.8792787056       27.8998413409       -0.0898229930
 Rh        34.9230115050       13.9786184375       -0.0387705450
 Rh        43.0208692571       27.9185556989       -0.0942236936
 Rh        18.8011546133       13.9313572763        6.5950658154
 Rh        26.8674350811       27.9095925385        6.5861434587
 Rh        34.9434134132       13.9291604745        6.5783247092
 Rh        42.9997462965       27.9043663438        6.5877486933
 Rh        20.1316064849       16.2552498518       -0.0899317298
 Rh        28.2119265475       30.2392582448       -0.1586692406
 Rh        36.2577700930       16.2932524656       -0.0414299437
 Rh        44.3500283963       30.2331440179       -0.1058822443
 Rh        20.1430745704       16.2621988991        6.5920701702
 Rh        28.2137076876       30.2354569172        6.5903602835
 Rh        36.2894348952       16.2616245482        6.5756298394
 Rh        44.3429716453       30.2299616555        6.5923744541
 Rh        21.4851440611       18.5938041565       -0.1581652455
 Rh        29.5573884563       32.5793900886       -0.0863578114
 Rh        37.5902369027       18.6023507180       -0.0391711330
 Rh        45.6877440768       32.5516498643       -0.1038254404
 Rh        21.4857819586       18.5922131109        6.5887836785
 Rh        29.5584139313       32.5574500568        6.5996961739
 Rh        37.6332727560       18.5941293009        6.5817630157
 Rh        45.6837102203       32.5533074156        6.5921767081
 Rh        17.4638954147        6.9611816709       -0.1018716846
 Rh        25.5694427604       20.9096056845       -0.0385352040
 Rh        33.5915911572        6.9245257570       -0.0911171631
 Rh        41.6307363126       20.9254952413       -0.0645588346
 Rh        17.4620760724        6.9499699775        6.5973036063
 Rh        25.5140509547       20.9246270720        6.5917383985
 Rh        33.5903979500        6.9460216742        6.5845750757
 Rh        41.6626796483       20.9269107779        6.5880388417
 Rh        18.8045165932        9.2820075212       -0.1024879522
 Rh        26.9163514207       23.2241149236       -0.0357703722
 Rh        34.9299543019        9.2648150926       -0.1357668548
 Rh        43.0090921240       23.2635745804       -0.1359407217
 Rh        18.8042863555        9.2763241351        6.5969488853
 Rh        26.8599304225       23.2504995879        6.5841858899
 Rh        34.9376739560        9.2708689348        6.5884531506
 Rh        43.0049297483       23.2531537446        6.5890651760
 Rh        20.1432468224       11.6028136484       -0.1035737603
 Rh        28.2487331247       25.5463836478       -0.0353213301
 Rh        36.2659509061       11.6270613663       -0.0672308537
 Rh        44.3670887552       25.5925371578       -0.0911409292
 Rh        20.1448009232       11.6031149795        6.5957688598
 Rh        28.2079603877       25.5823327722        6.5870934537
 Rh        36.2855223224       11.5957384784        6.5816724936
 Rh        44.3430229100       25.5802569535        6.5928278731
 Rh        21.4737557588       13.9230848492       -0.0837538067
 Rh        29.5735543414       27.8856701973       -0.0597881698
 Rh        37.5977973198       13.9683138730       -0.0394981768
 Rh        45.6971618418       27.9085312637       -0.1033951203
 Rh        21.4856902326       13.9319036931        6.5931587771
 Rh        29.5562474509       27.9050737613        6.5932108252
 Rh        37.6448446783       13.9282720259        6.5812683667
 Rh        45.6827548466       27.9035165155        6.5980118425
 Rh        22.8331650282       16.2591583668       -0.1322392519
 Rh        30.9061764607       30.2386493252       -0.1287628688
 Rh        38.9324611605       16.2874585238       -0.0344930915
 Rh        47.0341652762       30.2291957962       -0.1022627596
 Rh        22.8272746683       16.2629203584        6.5897730740
 Rh        30.9016444980       30.2289477760        6.6007625939
 Rh        38.9744431554       16.2605704336        6.5850981810
 Rh        47.0252282188       30.2293028186        6.5879031168
 Rh        24.2047050045       18.5918824402       -0.0633656716
 Rh        32.2472175961       32.5816680563       -0.0802122552
 Rh        40.2725676398       18.6017989573       -0.0362908845
 Rh        48.3756239290       32.5462515062       -0.1024924598
 Rh        24.1696601968       18.5938472573        6.5870463579
 Rh        32.2452252651       32.5600917714        6.5905604616
 Rh        40.3303460635       18.5969907694        6.5832463197
 Rh        48.3780245779       32.5521003049        6.5940025351
 Rh        20.1531961243        6.9578102343       -0.1035236483
 Rh        28.2554656235       20.9089591716       -0.0393054349
 Rh        36.2802195788        6.9280054045       -0.0940628262
 Rh        44.3562986836       20.9367370980       -0.1547440659
 Rh        20.1493378623        6.9490055973        6.5966368018
 Rh        28.2030390594       20.9192759417        6.5841249090
 Rh        36.2855644754        6.9368363841        6.5960391951
 Rh        44.3545987507       20.9181103163        6.5866363753
 Rh        21.4912646047        9.2775667605       -0.1045169915
 Rh        29.5914823647       23.2232518906       -0.0398939987
 Rh        37.6191399441        9.2618751283       -0.1499650983
 Rh        45.7082941299       23.2621998052       -0.0951677036
 Rh        21.4909503103        9.2740456897        6.5957469572
 Rh        29.5496470611       23.2490081801        6.5777891338
 Rh        37.6284783743        9.2708479200        6.5860325679
 Rh        45.6789257082       23.2487032778        6.5952765790
 Rh        22.8216975941       11.5932522308       -0.0830696378
 Rh        30.9227023752       25.5429584430       -0.0320923317
 Rh        38.9514005360       11.6058353717       -0.0889535030
 Rh        47.0398940380       25.5810055483       -0.1018846555
 Rh        22.8316033623       11.6017158007        6.5934441318
 Rh        30.8999980167       25.5801102407        6.5903573635
 Rh        38.9736531225       11.6076457616        6.5876078312
 Rh        47.0215858514       25.5762144775        6.5927585113
 Rh        24.1768061755       13.9303915114       -0.1222610583
 Rh        32.2545428708       27.8788605885       -0.0502464344
 Rh        40.2885649186       13.9479878618       -0.0618468341
 Rh        48.3773109953       27.9039672438       -0.1014968352
 Rh        24.1731645061       13.9315454986        6.5900040593
 Rh        32.2471434833       27.9109846922        6.6069239508
 Rh        40.3191631926       13.9172585732        6.5896782284
 Rh        48.3683968755       27.9020390151        6.5942592184
 Rh        25.5516731219       16.2728279509       -0.0549647740
 Rh        33.5946522992       30.2383753824       -0.1212785193
 Rh        41.6330376335       16.2808959980       -0.0641145141
 Rh        49.7192867834       30.2281757066       -0.1012924463
 Rh        25.5123550091       16.2629685333        6.5853979356
 Rh        33.5906619385       30.2245802484        6.5982129802
 Rh        41.6480851675       16.2586635765        6.5936376490
 Rh        49.7076663853       30.2297680936        6.5886107589
 Rh        26.9105613068       18.5962281173       -0.0356082607
 Rh        34.9396236385       32.5787924937       -0.0845272180
 Rh        42.9932238988       18.6099687990       -0.0883296443
 Rh        51.0637902141       32.5476343494       -0.1012229198
 Rh        26.8563713750       18.5943293097        6.5821248083
 Rh        34.9335775978       32.5629947762        6.5823511620
 Rh        43.0113813921       18.5867640561        6.5815592873
 Rh        51.0662735339       32.5537302119        6.5983556867
 Rh        22.8409976006        6.9535520242       -0.1070264896
 Rh        30.9229060415       20.9129359624       -0.0493500629
 Rh        38.9701400893        6.9406215982       -0.1010761480
 Rh        47.0421144570       20.9257518530       -0.1026339979
 Rh        22.8359515433        6.9469748532        6.5953389337
 Rh        30.8983909980       20.9442297126        6.5828165978
 Rh        38.9721661596        6.9595360761        6.5959668077
 Rh        47.0357410625       20.9239598525        6.5911691481
 Rh        24.1730319271        9.2694957602       -0.0936936665
 Rh        32.2569110198       23.2267940043       -0.0414934382
 Rh        40.3148233758        9.2542522070       -0.0830409778
 Rh        48.3790253377       23.2511068947       -0.1019149922
 Rh        24.1775401827        9.2731742911        6.5932179879
 Rh        32.2464878095       23.2632014496        6.5933925703
 Rh        40.3096979483        9.2585888224        6.6065055025
 Rh        48.3754251353       23.2511997395        6.5921910976
 Rh        25.5265564910       11.5985444938       -0.1529590162
 Rh        33.5906405453       25.5442671216       -0.0327355623
 Rh        41.6468154073       11.5952678011       -0.1636163246
 Rh        49.7178216382       25.5764792097       -0.1001127538
 Rh        25.5197531770       11.6002918709        6.5894696237
 Rh        33.5941540906       25.5875470921        6.5775262548
 Rh        41.6899905746       11.6084581154        6.5916429285
 Rh        49.7283962397       25.5793957912        6.5906180160
 Rh        26.8866048041       13.9505431704       -0.0589215693
 Rh        34.9339278423       27.8836558153       -0.0549022934
 Rh        42.9992603460       13.9369279994       -0.1444710353
 Rh        51.0581688594       27.9051251595       -0.1044465183
 Rh        26.8600670374       13.9289792578        6.5832111696
 Rh        34.9368245609       27.9116898634        6.6041625223
 Rh        43.0146182597       13.9312420519        6.5917805598
 Rh        51.0585227109       27.9050407754        6.5937182613
 Rh        28.2435745598       16.2855277557       -0.0374153565
 Rh        36.2909989823       30.2350896435       -0.1563454772
 Rh        44.3502618787       16.2802380493       -0.1623155028
 Rh        52.4048800225       30.2302924628       -0.1024203171
 Rh        28.2033096333       16.2606706806        6.5768419784
 Rh        36.2794404425       30.2178673036        6.5912882977
 Rh        44.3769925466       16.2827429297        6.5939457055
 Rh        52.4063056323       30.2307521931        6.5994335238
 Rh        29.5854163908       18.6006399411       -0.0446968412
 Rh        37.6277179958       32.5719576734       -0.0987881829
 Rh        45.7104248263       18.6030707023       -0.0835674384
 Rh        53.7514419587       32.5526240708       -0.1017743756
 Rh        29.5509246299       18.5934937883        6.5736120631
 Rh        37.6214218825       32.5720231210        6.5780456371
 Rh        45.6833382055       18.5905042480        6.5809490111
 Rh        53.7556134440       32.5514921613        6.5887914672
 Rh        25.5256892811        6.9476150577       -0.1034450069
 Rh        33.5882554481       20.9150880798       -0.0511198638
 Rh        41.6569101263        6.9490233564       -0.1011271041
 Rh        49.7127040655       20.9194149029       -0.1041435822
 Rh        25.5237748677        6.9464917293        6.5930787987
 Rh        33.5949677596       20.9481850436        6.5811025541
 Rh        41.6851359185        6.9513487570        6.6010671115
 Rh        49.7091522683       20.9158774393        6.6027666373
 Rh        26.8646279812        9.2569351900       -0.0934878945
 Rh        34.9200746063       23.2263319382       -0.0406559503
 Rh        43.0031882176        9.2725827934       -0.0997619207
 Rh        51.0502079321       23.2476551810       -0.1044208155
 Rh        26.8661021794        9.2726091390        6.5902616765
 Rh        34.9419899435       23.2538881605        6.5908232669
 Rh        42.9832671222        9.2746634145        6.6019035117
 Rh        51.0630909914       23.2371377784        6.5936705574
 Rh        28.2217412150       11.6121989708       -0.0830475171
 Rh        36.2610724638       25.5484344542       -0.0336035706
 Rh        44.3539397303       11.5961062723       -0.0943491122
 Rh        52.3893154229       25.5837429811       -0.1007174606
 Rh        28.2088682382       11.5975407932        6.5846354067
 Rh        36.2846949155       25.6029344664        6.6085663978
 Rh        44.3345674725       11.6076627342        6.5819298810
 Rh        52.4056657085       25.5722835208        6.5989303087
 Rh        29.5755265404       13.9709138419       -0.0395871858
 Rh        37.6275801622       27.8971127022       -0.0819193242
 Rh        45.7007769074       13.9312761587       -0.0932743783
 Rh        53.7339169078       27.9135307270       -0.1030678716
 Rh        29.5509677015       13.9266797606        6.5765971268
 Rh        37.6256785751       27.9270694655        6.5853296197
 Rh        45.6801985009       13.9233527033        6.6021129455
 Rh        53.7502789180       27.9033208467        6.5934425487
 Rh        30.9166363826       16.2929257801       -0.0460583424
 Rh        38.9861737009       30.2491233649       -0.0880660192
 Rh        47.0396094277       16.2634609004       -0.1018974200
 Rh        55.0882144934       30.2402838638       -0.1058016437
 Rh        30.8988626036       16.2600860097        6.5706747216
 Rh        38.9682739605       30.2383887687        6.5832973101
 Rh        47.0603939045       16.2674474854        6.5914056779
 Rh        55.0867301638       30.2308736115        6.5902302786
 Rh        32.2535120831       18.6036855796       -0.0530836828
 Rh        40.3151699390       32.5622177960       -0.1038708347
 Rh        48.3777088656       18.5933234497       -0.1046672845
 Rh        56.4369924992       32.5616648497       -0.1027363880
 Rh        32.2471024598       18.5930927172        6.5701797595
 Rh        40.3088028435       32.5172876202        6.5807560827
 Rh        48.4037896452       18.5849917019        6.5985794280
 Rh        56.4367013392       32.5511450824        6.5918179036
 Rh        28.2118423381        6.9369362609       -0.1003230238
 Rh        36.2529081396       20.9134367145       -0.0431810601
 Rh        44.3415596967        6.9576289219       -0.1026620810
 Rh        52.3802095462       20.9211294052       -0.0824087203
 Rh        28.2120886478        6.9469917281        6.5910402424
 Rh        36.2890768401       20.9425450724        6.5716273087
 Rh        44.3480847939        6.9537774144        6.5986023241
 Rh        52.3893247090       20.9246320077        6.5833738226
 Rh        29.5597470191        9.2650397296       -0.1496864763
 Rh        37.5897620004       23.2276693855       -0.0340215098
 Rh        45.6875724804        9.2793827268       -0.1045073939
 Rh        53.7342987588       23.2470143035       -0.1537803859
 Rh        29.5558612370        9.2723533877        6.5878332384
 Rh        37.6318239440       23.2379467185        6.6056764054
 Rh        45.6987890736        9.2892071984        6.6048781562
 Rh        53.7205234657       23.2532505200        6.5893913561
 Rh        30.9087787936       11.6332307024       -0.0626254703
 Rh        38.9508002196       25.5625218025       -0.0613603858
 Rh        47.0299581927       11.6061851933       -0.1070608676
 Rh        55.0852532975       25.5790881875       -0.1539781538
 Rh        30.9001336555       11.5964043957        6.5815407888
 Rh        38.9721470992       25.5611430511        6.5814329544
 Rh        47.0051114766       11.6057678968        6.5977208856
 Rh        55.0894586840       25.5855858334        6.5818487689
 Rh        32.2506552454       13.9794918768       -0.0396549879
 Rh        40.3262976178       27.9138049307       -0.1498129058
 Rh        48.3732898510       13.9327125081       -0.1051996438
 Rh        56.4314233406       27.9148078078       -0.1580625941
 Rh        32.2461044670       13.9261217681        6.5741018117
 Rh        40.3145585727       27.9039148611        6.6025965570
 Rh        48.3697908455       13.9339838893        6.5944087591
 Rh        56.4409096915       27.9156904522        6.6123618499
 Rh        33.5875024293       16.2955039343       -0.0474151741
 Rh        41.6669087714       30.2424978164       -0.1033683339
 Rh        49.7128595978       16.2614053187       -0.1057160063
 Rh        57.7691786892       30.2509843944       -0.0833939791
 Rh        33.5945464511       16.2603220666        6.5708888584
 Rh        41.6553225991       30.2367401871        6.5921554580
 Rh        49.7160690714       16.2581998949        6.5985151728
 Rh        57.7633105870       30.2144226172        6.5829229707
 Rh        34.9212783790       18.6041812705       -0.0497957329
 Rh        43.0003703505       32.5573608704       -0.1071501019
 Rh        51.0502845913       18.5872883292       -0.0999712163
 Rh        59.1242046411       32.5695878688       -0.0980598585
 Rh        34.9313545974       18.5886794474        6.5693587097
 Rh        42.9996801159       32.5374131549        6.5872205057
 Rh        51.0537286127       18.5824278192        6.5966533244
 Rh        59.1206829343       32.5574479167        6.5958227891
 Rh        16.1184379765        7.7332848833        2.1439552852
 Rh        24.1943592765       21.6860358933        2.1804058776
 Rh        32.2467098145        7.7491803876        2.1181457675
 Rh        40.2991037593       21.6944794561        2.2003507062
 Rh        17.4599373104       10.0570287608        2.1438203592
 Rh        25.5413870919       24.0158191960        2.1917543378
 Rh        33.5912332458       10.0723530513        2.1479640554
 Rh        41.6398954483       24.0173447125        2.1488067776
 Rh        18.8019515430       12.3817172705        2.1418173091
 Rh        26.8858836330       26.3463181254        2.1844454015
 Rh        34.9331436475       12.3955160306        2.1962941106
 Rh        42.9799004746       26.3429467894        2.1189763422
 Rh        20.1462451860       14.7079078741        2.1459447554
 Rh        28.2301222239       28.6774280819        2.1516053416
 Rh        36.2731087475       14.7219749446        2.2110011133
 Rh        44.3367295052       28.6749492317        2.1412654440
 Rh        21.4981340547       17.0310363868        2.1149300712
 Rh        29.5685978837       31.0071257400        2.1179522408
 Rh        37.6132387296       17.0488166777        2.2134979498
 Rh        45.6861840540       31.0057992957        2.1384856424
 Rh        22.8469662130       19.3565421964        2.1480905069
 Rh        30.9031681059       33.3378192238        2.1505492618
 Rh        38.9559467720       19.3721064111        2.2144048252
 Rh        47.0299637461       33.3406931473        2.1422049925
 Rh        18.8059355862        7.7324018567        2.1422139391
 Rh        26.8820663074       21.6913274443        2.2130527793
 Rh        34.9385473101        7.7482184086        2.1171879297
 Rh        42.9855752033       21.6897343388        2.1383115757
 Rh        20.1471730101       10.0548963162        2.1420333621
 Rh        28.2252063571       24.0171121325        2.2145295404
 Rh        36.2807655191       10.0712166032        2.1385518718
 Rh        44.3259607210       24.0126061610        2.1162150239
 Rh        21.4895003316       12.3817912735        2.1483089256
 Rh        29.5692607667       26.3454400888        2.2067693322
 Rh        37.6224406547       12.3955255846        2.1826210129
 Rh        45.6804725354       26.3464360966        2.1439092110
 Rh        22.8369700926       14.7086594721        2.1263593312
 Rh        30.9101932090       28.6782560692        2.1722480943
 Rh        38.9595887935       14.7217480854        2.2037818726
 Rh        47.0315078037       28.6774470222        2.1419282829
 Rh        24.1859827764       17.0350189110        2.1668235829
 Rh        32.2491511859       31.0074827975        2.1300818329
 Rh        40.3003753670       17.0444656294        2.2042639784
 Rh        48.3761271978       31.0056262121        2.1422030970
 Rh        25.5379744274       19.3645251682        2.2029612985
 Rh        33.5890915154       33.3371814686        2.1481050314
 Rh        41.6442436254       19.3659529157        2.1848003357
 Rh        49.7199126025       33.3404571056        2.1441613673
 Rh        21.4937044818        7.7302831532        2.1424083835
 Rh        29.5676222146       21.6933411552        2.2092657523
 Rh        37.6276343252        7.7457350616        2.1192501959
 Rh        45.6722372858       21.6850970171        2.1153262381
 Rh        22.8337391141       10.0560887425        2.1473369343
 Rh        30.9096098715       24.0170919306        2.2144269819
 Rh        38.9705681040       10.0686598666        2.1299322956
 Rh        47.0247375436       24.0193663567        2.1440277763
 Rh        24.1782238535       12.3873359411        2.1218630818
 Rh        32.2509670362       26.3438516527        2.2123924513
 Rh        40.3126445912       12.3925221118        2.1500442788
 Rh        48.3758652224       26.3493140873        2.1423917225
 Rh        25.5267631785       14.7137344870        2.1694233878
 Rh        33.5898109399       28.6770778195        2.1743380913
 Rh        41.6525115753       14.7154999120        2.1628812656
 Rh        49.7208948144       28.6768021609        2.1403557968
 Rh        26.8803767996       17.0426377172        2.2068897472
 Rh        34.9294480722       31.0053398149        2.1203618411
 Rh        42.9911724676       17.0358228862        2.1492158449
 Rh        51.0651122456       31.0044149138        2.1415054396
 Rh        28.2262531051       19.3690993968        2.2128553929
 Rh        36.2757924876       33.3366378835        2.1438434488
 Rh        44.3323370111       19.3611772996        2.1277298817
 Rh        52.4081238653       33.3394215927        2.1447480321
 Rh        24.1821479697        7.7307347656        2.1435033026
 Rh        32.2505805917       21.6935178501        2.2046086184
 Rh        40.3135168849        7.7362274691        2.1479351790
 Rh        48.3715552429       21.6933804639        2.1424492227
 Rh        25.5206094979       10.0685721241        2.1219144133
 Rh        33.5925018241       24.0173367801        2.2150157802
 Rh        41.6587088982       10.0688809179        2.1216231864
 Rh        49.7213995191       24.0197839069        2.1425678794
 Rh        26.8665181994       12.3921190083        2.1560943350
 Rh        34.9324320481       26.3448840074        2.2110762934
 Rh        42.9971193591       12.3893416693        2.1085318330
 Rh        51.0712112646       26.3461720142        2.1438388699
 Rh        28.2191715173       14.7196341567        2.2042114925
 Rh        36.2699012432       28.6764581796        2.1583948810
 Rh        44.3373309947       14.7120559832        2.1100275748
 Rh        52.4152151472       28.6720781491        2.1424637056
 Rh        29.5677400248       17.0462708389        2.2087888216
 Rh        37.6082005531       31.0035454663        2.1184719899
 Rh        45.6771102772       17.0297883309        2.1199167982
 Rh        53.7550515626       31.0032491114        2.1408610016
 Rh        30.9100998473       19.3716924144        2.2024607641
 Rh        38.9638398224       33.3334913873        2.1404154752
 Rh        47.0250463812       19.3632980740        2.1449711098
 Rh        55.0960320133       33.3364506493        2.1428247673
 Rh        26.8680667452        7.7371954607        2.1387058921
 Rh        34.9325910091       21.6961062898        2.2065874035
 Rh        42.9985407520        7.7325485068        2.1461278627
 Rh        51.0652571405       21.6888564022        2.1450425093
 Rh        28.2114161792       10.0696477797        2.1324756590
 Rh        36.2742662676       24.0200255003        2.2161268464
 Rh        44.3427837120       10.0577305402        2.1428674119
 Rh        52.4219965449       24.0099881089        2.1112807333
 Rh        29.5581686757       12.3951398430        2.1864737784
 Rh        37.6132104634       26.3470299792        2.1928657722
 Rh        45.6848251051       12.3842471792        2.1424662634
 Rh        53.7712074800       26.3388402724        2.1079731402
 Rh        30.9060621559       14.7209471028        2.2091396780
 Rh        38.9542834743       28.6738515803        2.1327496307
 Rh        47.0272954048       14.7098534756        2.1425155727
 Rh        55.1142337606       28.6693472986        2.1094708021
 Rh        32.2493006945       17.0468402573        2.2015416047
 Rh        40.3032707256       31.0034976200        2.1384537493
 Rh        48.3703701284       17.0378559909        2.1412851097
 Rh        56.4462009452       31.0035241048        2.1440229437
 Rh        33.5911347393       19.3724530420        2.1990666690
 Rh        41.6537091183       33.3344977665        2.1391150981
 Rh        49.7175869142       19.3652775124        2.1419181168
 Rh        57.7846883075       33.3337615301        2.1446967579
 Rh        29.5558273041        7.7476957638        2.1147362234
 Rh        37.6153883535       21.6968715386        2.2139711833
 Rh        45.6842945382        7.7316832878        2.1462868615
 Rh        53.7603337054       21.6824309467        2.1255739130
 Rh        30.9010765479       10.0718239742        2.1424517695
 Rh        38.9550801123       24.0204479911        2.2022027662
 Rh        47.0274423948       10.0567316735        2.1403247992
 Rh        55.1086449507       24.0119025118        2.1291402220
 Rh        32.2466651860       12.3960149425        2.1971698168
 Rh        40.2956814166       26.3462773489        2.1428137806
 Rh        48.3702260332       12.3836988952        2.1414113460
 Rh        56.4549128687       26.3427236472        2.1300404019
 Rh        33.5900513789       14.7211314395        2.2085861076
 Rh        41.6372687945       28.6718197456        2.1147456027
 Rh        49.7135525497       14.7099043572        2.1423130055
 Rh        57.7979013888       28.6737343639        2.1268563844
 Rh        34.9304458662       17.0478970385        2.2048321650
 Rh        42.9966673049       31.0037297707        2.1377365152
 Rh        51.0602701687       17.0348864362        2.1454666843
 Rh        59.1422885219       31.0041953315        2.1224495722
 Rh        36.2720843554       19.3733520690        2.2074774086
 Rh        44.3424115774       33.3372921165        2.1406355256
 Rh        52.4135398002       19.3534747305        2.1221032883
 Rh        60.4721645007       33.3360516952        2.1491748822
 Rh        14.7743612758        8.5060464337        4.3560971196
 Rh        22.8242482756       22.4737175329        4.3515758663
 Rh        30.9015057750        8.4966532578        4.3388777362
 Rh        38.9721499365       22.4770585089        4.3874772712
 Rh        16.1149333700       10.8334450843        4.3547976286
 Rh        24.1708343784       24.8063077994        4.3547241371
 Rh        32.2453217472       10.8172967364        4.3608381915
 Rh        40.3216770665       24.8086854961        4.3617115465
 Rh        17.4601072693       13.1579486852        4.3542850731
 Rh        25.5186564093       27.1374931615        4.3537373714
 Rh        33.5928873500       13.1536434276        4.3804006358
 Rh        41.6581740956       27.1320080090        4.3425482787
 Rh        18.8073357328       15.4851932502        4.3524051603
 Rh        26.8702208764       29.4629394871        4.3432346200
 Rh        34.9360526099       15.4890190018        4.3820895873
 Rh        42.9935140521       29.4515502790        4.3449845665
 Rh        20.1514517670       17.8134107624        4.3464190164
 Rh        28.2174292889       31.7811522373        4.3489859408
 Rh        36.2772925801       17.8215524120        4.3824519458
 Rh        44.3385771284       31.7826143436        4.3407650588
 Rh        21.4852443454       20.1410576769        4.3437706042
 Rh        29.5601555263       34.1091531099        4.3570576413
 Rh        37.6234739931       20.1473155824        4.3871195282
 Rh        45.6847086642       34.1130763619        4.3473817070
 Rh        17.4615980739        8.5050874789        4.3546031248
 Rh        25.5156030999       22.4719632876        4.3797563811
 Rh        33.5925447088        8.4951067587        4.3384225372
 Rh        41.6688906561       22.4768808146        4.3630480844